/home/filatov/bin/gmsrun: line 1: !/bin/bash: No such file or directory
----- GAMESS execution script 'rungms' -----
This job is running on host mike-trex
under operating system Linux at Wed Mar 22 02:04:03 PM KST 2023
Available scratch disk space (Kbyte units) at beginning of the job is
Filesystem     1K-blocks      Used Available Use% Mounted on
/dev/nvme0n1p6 983618560 136646072 846958760  14% /home
GAMESS temporary binary files will be written to /home/filatov/work-dir/gam-scr
GAMESS supplementary output files will be written to /home/filatov/work-dir/gam-scr
Copying input file psb3-s0min-ssr-bhhlyp-6-31gs.inp to your run's scratch directory...
cp psb3-s0min-ssr-bhhlyp-6-31gs.inp /home/filatov/work-dir/gam-scr/psb3-s0min-ssr-bhhlyp-6-31gs.F05
unset echo
 
Assuming a single but multicore node.
 
/home/filatov/appl/GAMESS-US/gamess-local/td-ssr/ddikick.x /home/filatov/appl/GAMESS-US/gamess-local/td-ssr/gamess.01.x psb3-s0min-ssr-bhhlyp-6-31gs -ddi 1 16 mike-trex:cpus=16 -scr /home/filatov/work-dir/gam-scr

 Distributed Data Interface kickoff program.
 Initiating 16 compute processes on 1 nodes to run the following command:
 /home/filatov/appl/GAMESS-US/gamess-local/td-ssr/gamess.01.x psb3-s0min-ssr-bhhlyp-6-31gs 

          ******************************************************
          *         GAMESS VERSION = 30 SEP 2018 (R3)         *
          *             FROM IOWA STATE UNIVERSITY             *
          * M.W.SCHMIDT, K.K.BALDRIDGE, J.A.BOATZ, S.T.ELBERT, *
          *   M.S.GORDON, J.H.JENSEN, S.KOSEKI, N.MATSUNAGA,   *
          *          K.A.NGUYEN, S.J.SU, T.L.WINDUS,           *
          *       TOGETHER WITH M.DUPUIS, J.A.MONTGOMERY       *
          *         J.COMPUT.CHEM.  14, 1347-1363(1993)        *
          **************** 64 BIT INTEL VERSION ****************

  SINCE 1993, STUDENTS AND POSTDOCS WORKING AT IOWA STATE UNIVERSITY
  AND ALSO IN THEIR VARIOUS JOBS AFTER LEAVING ISU HAVE MADE IMPORTANT
  CONTRIBUTIONS TO THE CODE:
     IVANA ADAMOVIC, CHRISTINE AIKENS, YURI ALEXEEV, POOJA ARORA,
     ANDREY ASADCHEV, ROB BELL, PRADIPTA BANDYOPADHYAY, JONATHAN BENTZ,
     BRETT BODE, KURT BRORSEN, CALEB CARLIN, GALINA CHABAN, WEI CHEN,
     CHEOL HO CHOI, PAUL DAY, ALBERT DEFUSCO, NUWAN DESILVA, TIM DUDLEY,
     DMITRI FEDOROV, ALEX FINDLATER, GRAHAM FLETCHER, MARK FREITAG,
     KURT GLAESEMANN, ANASTASIA GUNINA,
     DAN KEMP, GRANT MERRILL, NORIYUKI MINEZAWA, JONATHAN MULLIN,
     TAKESHI NAGATA, SEAN NEDD, HEATHER NETZLOFF, BOSILJKA NJEGIC, RYAN OLSON,
     MIKE PAK, BUU PHAM,
     SPENCER PRUITT, LUKE ROSKOP, JIM SHOEMAKER, LYUDMILA SLIPCHENKO,
     TONY SMITH, SAROM SOK LEANG, JIE SONG, TETSUYA TAKETSUGU, SIMON WEBB,
     PENG XU, SOOHAENG YOO, FEDERICO ZAHARIEV

  ADDITIONAL CODE HAS BEEN PROVIDED BY COLLABORATORS IN OTHER GROUPS:
     IOWA STATE UNIVERSITY:
          JOE IVANIC, AARON WEST, LAIMUTIS BYTAUTAS, KLAUS RUEDENBERG
     UNIVERSITY OF TOKYO: KIMIHIKO HIRAO, TAKAHITO NAKAJIMA,
          TAKAO TSUNEDA, MUNEAKI KAMIYA, SUSUMU YANAGISAWA,
          KIYOSHI YAGI, MAHITO CHIBA, SEIKEN TOKURA, NAOAKI KAWAKAMI
     UNIVERSITY OF AARHUS: FRANK JENSEN
     UNIVERSITY OF IOWA: VISVALDAS KAIRYS, HUI LI
     NATIONAL INST. OF STANDARDS AND TECHNOLOGY: WALT STEVENS, DAVID GARMER
     UNIVERSITY OF PISA: BENEDETTA MENNUCCI, JACOPO TOMASI
     UNIVERSITY OF MEMPHIS: HENRY KURTZ, PRAKASHAN KORAMBATH
     UNIVERSITY OF ALBERTA: TOBY ZENG, MARIUSZ KLOBUKOWSKI
     UNIVERSITY OF NEW ENGLAND: MARK SPACKMAN
     MIE UNIVERSITY: HIROAKI UMEDA
     NAT. INST. OF ADVANCED INDUSTRIAL SCIENCE AND TECHNOLOGY: KAZUO KITAURA
     MICHIGAN STATE UNIVERSITY:
          KAROL KOWALSKI, MARTA WLOCH, JEFFREY GOUR, JESSE LUTZ,
          WEI LI, JUN SHEN, J. EMILIANO DEUSTUA, PIOTR PIECUCH
     UNIVERSITY OF MINNESOTA:
          YINAN SHU
     UNIVERSITY OF SILESIA: MONIKA MUSIAL, STANISLAW KUCHARSKI
     FACULTES UNIVERSITAIRES NOTRE-DAME DE LA PAIX:
          OLIVIER QUINET, BENOIT CHAMPAGNE
     UNIVERSITY OF CALIFORNIA - SANTA BARBARA: BERNARD KIRTMAN
     INSTITUTE FOR MOLECULAR SCIENCE:
          KAZUYA ISHIMURA, MICHIO KATOUDA, AND SHIGERU NAGASE
     UNIVERSITY OF NOTRE DAME: ANNA POMOGAEVA, DAN CHIPMAN
     KYUSHU UNIVERSITY:
          HARUYUKI NAKANO,
          FENG LONG GU, JACEK KORCHOWIEC, MARCIN MAKOWSKI, AND YURIKO AOKI,
          HIROTOSHI MORI AND EISAKU MIYOSHI
     PENNSYLVANIA STATE UNIVERSITY:
          TZVETELIN IORDANOV, CHET SWALINA, JONATHAN SKONE,
          SHARON HAMMES-SCHIFFER
     WASEDA UNIVERSITY:
          MASATO KOBAYASHI, TOMOKO AKAMA, TSUGUKI TOUMA,
          TAKESHI YOSHIKAWA, YASUHIRO IKABATA, JUNJI SEINO,
          YUYA NAKAJIMA, HIROMI NAKAI
     NANJING UNIVERSITY: SHUHUA LI
     UNIVERSITY OF NEBRASKA:
          PEIFENG SU, DEJUN SI, NANDUN THELLAMUREGE, YALI WANG, HUI LI
     UNIVERSITY OF ZURICH: ROBERTO PEVERATI, KIM BALDRIDGE
     N. COPERNICUS UNIVERSITY AND JACKSON STATE UNIVERSITY:
          MARIA BARYSZ
     UNIVERSITY OF COPENHAGEN: Jimmy Kromann, CASPER STEINMANN
     TOKYO INSTITUTE OF TECHNOLOGY: HIROYA NAKATA
     NAGOYA UNIVERSITY: YOSHIO NISHIMOTO, STEPHAN IRLE
     MOSCOW STATE UNIVERSITY: VLADIMIR MIRONOV


 PARALLEL VERSION RUNNING ON       16 PROCESSORS IN        1 NODES.

 EXECUTION OF GAMESS BEGUN Wed Mar 22 14:04:03 2023

            ECHO OF THE FIRST FEW INPUT CARDS -
 INPUT CARD> $contrl scftyp=reks runtyp=hessian  dfttyp=bhhlyp icharg=1                     
 INPUT CARD>         maxit=200 mult=1                                                       
 INPUT CARD>         nzvar=36                                                               
 INPUT CARD> $end                                                                           
 INPUT CARD> $zmat dlc=.t. auto=.t. $end                                                    
 INPUT CARD> $force method=seminum  purify=.true. $end                                      
 INPUT CARD> $dft sg1=.true. $end                                                           
 INPUT CARD> $scf                                                                           
 INPUT CARD> nconv=7                                                                        
 INPUT CARD> npunch=2                                                                       
 INPUT CARD> $end                                                                           
 INPUT CARD>$reks                                                                           
 INPUT CARD>   rexType=1 rexTarget=1 wpps=0.5 rexShift=0.4 rexDIIS=no                       
 INPUT CARD>$end                                                                            
 INPUT CARD> $basis gbasis=n31 ngauss=6 ndfunc=1 $end                                       
 INPUT CARD> $guess guess=moread norb=60 $end                                               
 INPUT CARD> $system timlim=999999100 mwords=700 $end                                       
 INPUT CARD> $data                                                                          
 INPUT CARD> PSB3                                                                           
 INPUT CARD> c1                                                                             
 INPUT CARD> C    6.0      -3.06139063    0.23716652    0.00000000                          
 INPUT CARD> C    6.0      -1.90747390   -0.44212550    0.00000000                          
 INPUT CARD> H    1.0      -3.08428495    1.31543804    0.00000000                          
 INPUT CARD> H    1.0      -4.01200228   -0.26852013    0.00000000                          
 INPUT CARD> H    1.0      -1.90464673   -1.52059244    0.00000000                          
 INPUT CARD> C    6.0      -0.65494602    0.23598372    0.00000000                          
 INPUT CARD> C    6.0       0.56169250   -0.37945936    0.00000000                          
 INPUT CARD> H    1.0      -0.68545908    1.31721883    0.00000000                          
 INPUT CARD> H    1.0       0.63538512   -1.45559078    0.00000000                          
 INPUT CARD> C    6.0       1.72702918    0.39347894    0.00000000                          
 INPUT CARD> H    1.0       1.64927368    1.47030094    0.00000000                          
 INPUT CARD> N    7.0       2.93638619   -0.08230066    0.00000000                          
 INPUT CARD> H    1.0       3.74094162    0.52062663    0.00000000                          
 INPUT CARD> H    1.0       3.11662244   -1.07304230    0.00000000                          
 INPUT CARD> $end                                                                           
 INPUT CARD> $VEC                                                                           
 INPUT CARD> 1  1-2.80112045E-07 4.84402782E-07-8.87108527E-06 3.29734094E-06-6.63606102E-13
 INPUT CARD> 1  2-8.93094924E-05-2.91989521E-05-1.30434427E-05-4.93045364E-13-2.58800495E-06
 INPUT CARD> 1  3 4.58594090E-07-2.58317797E-06 9.92485745E-07 2.06339749E-14 9.26305257E-15
 INPUT CARD> 1  4-2.98737515E-06-1.90464473E-05 1.30645177E-05-1.99934390E-06-2.90234745E-13
 INPUT CARD> 1  5 2.86156271E-04 5.71787081E-05 1.40830838E-04-6.42572392E-13 8.63809577E-06
 INPUT CARD> 1  6-3.38332702E-07-6.48537019E-06 4.75739260E-06 7.11093828E-15-5.46267722E-14
 INPUT CARD> 1  7 1.51435158E-06 2.36517819E-05-2.08350853E-07 4.08159616E-06 5.56082209E-06
 INPUT CARD> 1  8 2.78766806E-05-2.11806776E-06-2.59724941E-06-1.46851283E-05-1.55011458E-05
 INPUT CARD> 1  9 2.74810042E-13-1.89444705E-04 2.44836842E-04 1.19845320E-04 9.97479139E-13
 INPUT CARD> 1 10-3.49709917E-06 4.84470842E-06-9.38783403E-06-2.38917598E-05 4.98029627E-14
 INPUT CARD> 1 11 5.40891960E-14 3.82129040E-06 5.03645450E-05-1.37004104E-05-6.38907314E-06
 INPUT CARD> 1 12 5.63767196E-13-3.55855577E-04-2.76408821E-04 4.89983641E-05 9.42128259E-13
 INPUT CARD> 1 13-7.14189149E-05 2.37241981E-05-6.26655963E-06 6.30104917E-06 1.08291976E-13
 INPUT CARD> 1 14 4.03629565E-13-1.72006357E-05-1.41483630E-05 1.38937589E-05 7.87863076E-05
  700000000 WORDS OF MEMORY AVAILABLE

     BASIS OPTIONS
     -------------
     GBASIS=N31          IGAUSS=       6      POLAR=POPN31  
     NDFUNC=       1     NFFUNC=       0     DIFFSP=       F
     NPFUNC=       0      DIFFS=       F     BASNAM=        


     RUN TITLE
     ---------
  PSB3                                                                           

 THE POINT GROUP OF THE MOLECULE IS C1      
 THE ORDER OF THE PRINCIPAL AXIS IS     0

 ATOM      ATOMIC                      COORDINATES (BOHR)
           CHARGE         X                   Y                   Z
 C           6.0    -5.7851894321        0.4481797363        0.0000000000
 C           6.0    -3.6046029997       -0.8354960472        0.0000000000
 H           1.0    -5.8284534236        2.4858174494        0.0000000000
 H           1.0    -7.5815849713       -0.5074294679        0.0000000000
 H           1.0    -3.5992604231       -2.8735030506        0.0000000000
 C           6.0    -1.2376685145        0.4459445684        0.0000000000
 C           6.0     1.0614449144       -0.7170742139        0.0000000000
 H           1.0    -1.2953298370        2.4891826546        0.0000000000
 H           1.0     1.2007037735       -2.7506677245        0.0000000000
 C           6.0     3.2636119230        0.7435673785        0.0000000000
 H           1.0     3.1166753340        2.7784658961        0.0000000000
 N           7.0     5.5489652932       -0.1555256960        0.0000000000
 H           1.0     7.0693545979        0.9838416726        0.0000000000
 H           1.0     5.8895624188       -2.0277559202        0.0000000000

          INTERNUCLEAR DISTANCES (ANGS.)
          ------------------------------

                1 C          2 C          3 H          4 H          5 H     

   1 C       0.0000000    1.3390151 *  1.0785145 *  1.0767458 *  2.1042274 *
   2 C       1.3390151 *  0.0000000    2.1151628 *  2.1116767 *  1.0784706 *
   3 H       1.0785145 *  2.1151628 *  0.0000000    1.8356424 *  3.0715819  
   4 H       1.0767458 *  2.1116767 *  1.8356424 *  0.0000000    2.4512512 *
   5 H       2.1042274 *  1.0784706 *  3.0715819    2.4512512 *  0.0000000  
   6 C       2.4064449 *  1.4243097 *  2.6583659 *  3.3947534    2.1557624 *
   7 C       3.6751815    2.4699615 *  4.0206752    4.5750400    2.7175382 *
   8 H       2.6098973 *  2.1421047 *  2.3988265 *  3.6851673    3.0886229  
   9 H       4.0659044    2.7373790 *  4.6383775    4.7965974    2.5408634 *
  10 C       4.7909704    3.7293226    4.8988521    5.7770862    4.1052088  
  11 H       4.8693920    4.0382952    4.7360912    5.9222921    4.6449751  
  12 N       6.0062789    4.8572064    6.1807891    6.9508834    5.0501765  
  13 H       6.8082357    5.7298769    6.8713494    7.7930027    6.0032694  
  14 H       6.3154171    5.0635561    6.6450050    7.1738794    5.0411750  

                6 C          7 C          8 H          9 H         10 C     

   1 C       2.4064449 *  3.6751815    2.6098973 *  4.0659044    4.7909704  
   2 C       1.4243097 *  2.4699615 *  2.1421047 *  2.7373790 *  3.7293226  
   3 H       2.6583659 *  4.0206752    2.3988265 *  4.6383775    4.8988521  
   4 H       3.3947534    4.5750400    3.6851673    4.7965974    5.7770862  
   5 H       2.1557624 *  2.7175382 *  3.0886229    2.5408634 *  4.1052088  
   6 C       0.0000000    1.3634440 *  1.0816656 *  2.1275288 *  2.3871763 *
   7 C       1.3634440 *  0.0000000    2.1057312 *  1.0786517 *  1.3983716 *
   8 H       1.0816656 *  2.1057312 *  0.0000000    3.0713356    2.5832915 *
   9 H       2.1275288 *  1.0786517 *  3.0713356    0.0000000    2.1472647 *
  10 C       2.3871763 *  1.3983716 *  2.5832915 *  2.1472647 *  0.0000000  
  11 H       2.6139945 *  2.1457973 *  2.3397460 *  3.0965808    1.0796256 *
  12 N       3.6054087    2.3932140 *  3.8828363    2.6796514 *  1.2995809 *
  13 H       4.4050936    3.3042064    4.4975085    3.6810211    2.0179222 *
  14 H       3.9922773    2.6473995 *  4.4910101    2.5105541 *  2.0203104 *

               11 H         12 N         13 H         14 H     

   1 C       4.8693920    6.0062789    6.8082357    6.3154171  
   2 C       4.0382952    4.8572064    5.7298769    5.0635561  
   3 H       4.7360912    6.1807891    6.8713494    6.6450050  
   4 H       5.9222921    6.9508834    7.7930027    7.1738794  
   5 H       4.6449751    5.0501765    6.0032694    5.0411750  
   6 C       2.6139945 *  3.6054087    4.4050936    3.9922773  
   7 C       2.1457973 *  2.3932140 *  3.3042064    2.6473995 *
   8 H       2.3397460 *  3.8828363    4.4975085    4.4910101  
   9 H       3.0965808    2.6796514 *  3.6810211    2.5105541 *
  10 C       1.0796256 *  1.2995809 *  2.0179222 *  2.0203104 *
  11 H       0.0000000    2.0167375 *  2.2971626 *  2.9362744 *
  12 N       2.0167375 *  0.0000000    1.0054008 *  1.0070025 *
  13 H       2.2971626 *  1.0054008 *  0.0000000    1.7115943 *
  14 H       2.9362744 *  1.0070025 *  1.7115943 *  0.0000000  

  * ... LESS THAN  3.000


     ATOMIC BASIS SET
     ----------------
 THE CONTRACTED PRIMITIVE FUNCTIONS HAVE BEEN UNNORMALIZED
 THE CONTRACTED BASIS FUNCTIONS ARE NOW NORMALIZED TO UNITY

  SHELL TYPE  PRIMITIVE        EXPONENT          CONTRACTION COEFFICIENT(S)

 C         

      1   S       1          3047.5248800    0.001834737132
      1   S       2           457.3695180    0.014037322813
      1   S       3           103.9486850    0.068842622264
      1   S       4            29.2101553    0.232184443216
      1   S       5             9.2866630    0.467941348435
      1   S       6             3.1639270    0.362311985337

      2   L       7             7.8682723   -0.119332419775    0.068999066591
      2   L       8             1.8812885   -0.160854151696    0.316423960957
      2   L       9             0.5442493    1.143456437840    0.744308290898

      3   L      10             0.1687145    1.000000000000    1.000000000000

      4   D      11             0.8000000    1.000000000000

 C         

      5   S      12          3047.5248800    0.001834737132
      5   S      13           457.3695180    0.014037322813
      5   S      14           103.9486850    0.068842622264
      5   S      15            29.2101553    0.232184443216
      5   S      16             9.2866630    0.467941348435
      5   S      17             3.1639270    0.362311985337

      6   L      18             7.8682723   -0.119332419775    0.068999066591
      6   L      19             1.8812885   -0.160854151696    0.316423960957
      6   L      20             0.5442493    1.143456437840    0.744308290898

      7   L      21             0.1687145    1.000000000000    1.000000000000

      8   D      22             0.8000000    1.000000000000

 H         

      9   S      23            18.7311370    0.033494604338
      9   S      24             2.8253944    0.234726953484
      9   S      25             0.6401217    0.813757326146

     10   S      26             0.1612778    1.000000000000

 H         

     11   S      27            18.7311370    0.033494604338
     11   S      28             2.8253944    0.234726953484
     11   S      29             0.6401217    0.813757326146

     12   S      30             0.1612778    1.000000000000

 H         

     13   S      31            18.7311370    0.033494604338
     13   S      32             2.8253944    0.234726953484
     13   S      33             0.6401217    0.813757326146

     14   S      34             0.1612778    1.000000000000

 C         

     15   S      35          3047.5248800    0.001834737132
     15   S      36           457.3695180    0.014037322813
     15   S      37           103.9486850    0.068842622264
     15   S      38            29.2101553    0.232184443216
     15   S      39             9.2866630    0.467941348435
     15   S      40             3.1639270    0.362311985337

     16   L      41             7.8682723   -0.119332419775    0.068999066591
     16   L      42             1.8812885   -0.160854151696    0.316423960957
     16   L      43             0.5442493    1.143456437840    0.744308290898

     17   L      44             0.1687145    1.000000000000    1.000000000000

     18   D      45             0.8000000    1.000000000000

 C         

     19   S      46          3047.5248800    0.001834737132
     19   S      47           457.3695180    0.014037322813
     19   S      48           103.9486850    0.068842622264
     19   S      49            29.2101553    0.232184443216
     19   S      50             9.2866630    0.467941348435
     19   S      51             3.1639270    0.362311985337

     20   L      52             7.8682723   -0.119332419775    0.068999066591
     20   L      53             1.8812885   -0.160854151696    0.316423960957
     20   L      54             0.5442493    1.143456437840    0.744308290898

     21   L      55             0.1687145    1.000000000000    1.000000000000

     22   D      56             0.8000000    1.000000000000

 H         

     23   S      57            18.7311370    0.033494604338
     23   S      58             2.8253944    0.234726953484
     23   S      59             0.6401217    0.813757326146

     24   S      60             0.1612778    1.000000000000

 H         

     25   S      61            18.7311370    0.033494604338
     25   S      62             2.8253944    0.234726953484
     25   S      63             0.6401217    0.813757326146

     26   S      64             0.1612778    1.000000000000

 C         

     27   S      65          3047.5248800    0.001834737132
     27   S      66           457.3695180    0.014037322813
     27   S      67           103.9486850    0.068842622264
     27   S      68            29.2101553    0.232184443216
     27   S      69             9.2866630    0.467941348435
     27   S      70             3.1639270    0.362311985337

     28   L      71             7.8682723   -0.119332419775    0.068999066591
     28   L      72             1.8812885   -0.160854151696    0.316423960957
     28   L      73             0.5442493    1.143456437840    0.744308290898

     29   L      74             0.1687145    1.000000000000    1.000000000000

     30   D      75             0.8000000    1.000000000000

 H         

     31   S      76            18.7311370    0.033494604338
     31   S      77             2.8253944    0.234726953484
     31   S      78             0.6401217    0.813757326146

     32   S      79             0.1612778    1.000000000000

 N         

     33   S      80          4173.5114600    0.001834772160
     33   S      81           627.4579110    0.013994627002
     33   S      82           142.9020930    0.068586551812
     33   S      83            40.2343293    0.232240873040
     33   S      84            12.8202129    0.469069948082
     33   S      85             4.3904370    0.360455199063

     34   L      86            11.6263619   -0.114961181702    0.067579743878
     34   L      87             2.7162798   -0.169117478561    0.323907295893
     34   L      88             0.7722184    1.145851947027    0.740895139755

     35   L      89             0.2120315    1.000000000000    1.000000000000

     36   D      90             0.8000000    1.000000000000

 H         

     37   S      91            18.7311370    0.033494604338
     37   S      92             2.8253944    0.234726953484
     37   S      93             0.6401217    0.813757326146

     38   S      94             0.1612778    1.000000000000

 H         

     39   S      95            18.7311370    0.033494604338
     39   S      96             2.8253944    0.234726953484
     39   S      97             0.6401217    0.813757326146

     40   S      98             0.1612778    1.000000000000

 TOTAL NUMBER OF BASIS SET SHELLS             =   40
 NUMBER OF CARTESIAN GAUSSIAN BASIS FUNCTIONS =  106
 NUMBER OF ELECTRONS                          =   44
 CHARGE OF MOLECULE                           =    1
 SPIN MULTIPLICITY                            =    1
 NUMBER OF OCCUPIED ORBITALS (ALPHA)          =   22
 NUMBER OF OCCUPIED ORBITALS (BETA )          =   22
 TOTAL NUMBER OF ATOMS                        =   14
 THE NUCLEAR REPULSION ENERGY IS      205.4842126075

     STANDARD GRID ONE (SG-1) PRUNED GRID OPTIONS
     -------------------------------------------
     DFTTYP=BHHLYP  
     GRID HAS 50 RADIAL POINTS AND AT MOST
      194 ANGULAR POINTS, BEFORE PRUNING
     SWOFF =    5.00E-03 (PURE SCF -> DFT)
     COARSE GRID SWITCHING IS NOT AVAILABLE
     THRESH=    0.00E+00 GTHRE=    1.00E+00

 GRIMME'S EMPIRICAL DISPERSION CORRECTION= F

     $CONTRL OPTIONS
     ---------------
 SCFTYP=REKS         RUNTYP=HESSIAN      EXETYP=RUN     
 MPLEVL=       0     CITYP =NONE         CCTYP =NONE         VBTYP =NONE    
 DFTTYP=BHHLYP       TDDFT =NONE    
 MULT  =       1     ICHARG=       1     NZVAR =      36     COORD =UNIQUE  
 PP    =NONE         RELWFN=NONE         LOCAL =NONE         NUMGRD=       F
 ISPHER=      -1     NOSYM =       0     MAXIT =     200     UNITS =ANGS    
 PLTORB=       F     MOLPLT=       F     AIMPAC=       F     FRIEND=        
 NPRINT=       7     IREST =       0     GEOM  =INPUT   
 NORMF =       0     NORMP =       0     ITOL  =      20     ICUT  =       9
 INTTYP=BEST         GRDTYP=BEST         QMTTOL= 1.0E-06

     $SYSTEM OPTIONS
     ---------------
  REPLICATED MEMORY=   700000000 WORDS (ON EVERY NODE).
 DISTRIBUTED MEMDDI=           0 MILLION WORDS IN AGGREGATE,
 MEMDDI DISTRIBUTED OVER  16 PROCESSORS IS           0 WORDS/PROCESSOR.
 TOTAL MEMORY REQUESTED ON EACH PROCESSOR=   700000000 WORDS.
 TIMLIM=   999999100.00 MINUTES, OR  694443.8 DAYS.
 PARALL= T  BALTYP=  DLB     KDIAG=    0  COREFL= F
 MXSEQ2=     300 MXSEQ3=     150  mem10=         0

          ----------------
          PROPERTIES INPUT
          ----------------

     MOMENTS            FIELD           POTENTIAL          DENSITY
 IEMOM =       1   IEFLD =       0   IEPOT =       0   IEDEN =       0
 WHERE =COMASS     WHERE =NUCLEI     WHERE =NUCLEI     WHERE =NUCLEI  
 OUTPUT=BOTH       OUTPUT=BOTH       OUTPUT=BOTH       OUTPUT=BOTH    
 IEMINT=       0   IEFINT=       0                     IEDINT=       0
                                                       MORB  =       0
          EXTRAPOLATION IN EFFECT
          DIIS IN EFFECT
 ORBITAL PRINTING OPTION: NPREO=     1   106     2     1

 =====> REKS control string found <=====
 $REKS |   REXTYPE=1 REXTARGET=1 WPPS=0.5 REXSHIFT=0.4 REXDIIS=NO |$END

 ======> set rexType to   1
 ======> set rexTarget to   1
 ======> set WPPS to    0.50000000
 ======> set REXSHIFT to    0.40000000
 ======> set REXDIIS to F

 =====> End of REKS control string <=====

     -------------------------------
     INTEGRAL TRANSFORMATION OPTIONS
     -------------------------------
     NWORD  =            0
     CUTOFF = 1.0E-09     MPTRAN =       0
     DIRTRF =       F     AOINTS =DUP     

          ----------------------
          INTEGRAL INPUT OPTIONS
          ----------------------
 NOPK  =       1 NORDER=       0 SCHWRZ=       T

     ------------------------------------------
     THE POINT GROUP IS C1 , NAXIS= 0, ORDER= 1
     ------------------------------------------

     DIMENSIONS OF THE SYMMETRY SUBSPACES ARE
 A   =  106

 ..... DONE SETTING UP THE RUN .....
 CPU     0: STEP CPU TIME=     0.06 TOTAL CPU TIME=          0.1 (      0.0 MIN)
 TOTAL WALL CLOCK TIME=          0.1 SECONDS, CPU UTILIZATION IS    85.71%

     ---------------------------------
     HESSIAN MATRIX CONTROL PARAMETERS
     ---------------------------------
     METHOD=SEMINUM    NVIB  =       2   VIBSIZ= 0.01000
     RDHESS=       F   PURIFY=       T   PRTIFC=       F
     VIBANL=       T   DECOMP=       F   PROJCT=       F
     SCLFAC= 1.00000   PRTSCN=       F   NPRT  =       0
     PULCOR=       F   NPUN  =       0   REDOVB=       T
     HSSTYP=GENERAL 
     THERMOCHEMISTRY WILL BE PRINTED FOR    1 TEMPERATURES:
      298.15000

               * * * EFFICIENCY NOTE * * *
 THIS CALCULATION CAN BE RUN WITH DIFFERENTIATION METHOD=ANALYTIC
 THIS MIGHT BE MORE ACCURATE AND/OR FASTER THAN YOUR CHOICE,
 BUT THE REQUESTED CALCULATION METHOD=SEMINUM  IS PROCEEDING.

 
 
 -----------------------------------------------
  STATISTICS ON AUTOMATIC COORDINATE GENERATION 
 -----------------------------------------------
  NUMBER OF USER SPECIFIED BONDS                              0
  NUMBER OF BONDS                                            13
  NUMBER OF ANGLES                                           18
  NUMBER OF TORSIONS                                         20
  NUMBER OF EXTRA COORD.                                      0
  NUMBER OF EXTRA COORD. FOR CONSTRAINTS                      0
  NUMBER OF CONSTRAINED COORD.                                0
 
  TOTAL NUMBER OF PRIMITIVES                                 51
 -----------------------------------------------

   --- ENCODED Z MATRIX ---
 COORD  TYPE   I   J   K   L   M   N
    1      1    1   4
    2      1    1   2
    3      1    1   3
    4      1    2   6
    5      1    2   5
    6      1    6   8
    7      1    6   7
    8      1    7  10
    9      1    7   9
   10      1   10  12
   11      1   10  11
   12      1   12  14
   13      1   12  13
   14      2    1   2   6
   15      2    1   2   5
   16      2    2   1   4
   17      2    2   1   3
   18      2    2   6   8
   19      2    2   6   7
   20      2    3   1   4
   21      2    5   2   6
   22      2    6   7   9
   23      2    6   7  10
   24      2    7  10  11
   25      2    7  10  12
   26      2    7   6   8
   27      2    9   7  10
   28      2   10  12  13
   29      2   10  12  14
   30      2   11  10  12
   31      2   13  12  14
   32      3    1   2   6   8
   33      3    1   2   6   7
   34      3    2   6   7  10
   35      3    2   6   7   9
   36      3    3   1   2   5
   37      3    3   1   2   6
   38      3    4   1   2   5
   39      3    4   1   2   6
   40      3    5   2   6   7
   41      3    5   2   6   8
   42      3    6   7  10  11
   43      3    6   7  10  12
   44      3    7  10  12  13
   45      3    7  10  12  14
   46      3    8   6   7  10
   47      3    8   6   7   9
   48      3    9   7  10  12
   49      3    9   7  10  11
   50      3   11  10  12  14
   51      3   11  10  12  13

          INDEP./SYM. INTERNAL COORDINATES
          --------------------------------
 CRD  1=   0.3323 ( 14) -0.1303 ( 15)  0.2204 ( 18) -0.4614 ( 19) -0.2020 ( 21)
          -0.2460 ( 22)  0.4722 ( 23)  0.1908 ( 24) -0.3001 ( 25)  0.2410 ( 26)
          -0.2262 ( 27)  0.1092 ( 30)
 CRD  2=   0.2376 (  2)  0.3031 (  4)  0.3572 (  7)  0.2865 (  8)  0.2350 ( 10)
           0.3839 ( 14) -0.2485 ( 15)  0.1802 ( 17) -0.1354 ( 21) -0.1533 ( 24)
           0.3905 ( 25)  0.1775 ( 29) -0.2372 ( 30)
 CRD  3=  -0.2354 (  4) -0.2661 (  7) -0.2569 (  8) -0.1248 ( 10)  0.2954 ( 14)
          -0.1651 ( 16)  0.1311 ( 17)  0.2926 ( 18) -0.3374 ( 19) -0.2504 ( 21)
          -0.3774 ( 23) -0.2219 ( 24)  0.2390 ( 25)  0.2913 ( 27) -0.1346 ( 28)
 CRD  4=  -0.1874 ( 32) -0.4471 ( 33)  0.4015 ( 34)  0.1078 ( 35) -0.1802 ( 36)
           0.2145 ( 39) -0.2582 ( 40) -0.2938 ( 42) -0.4676 ( 43)  0.1809 ( 44)
           0.1379 ( 46) -0.1558 ( 47) -0.1772 ( 48) -0.1832 ( 50)
 CRD  5=   0.2051 (  2)  0.1991 (  4) -0.1976 (  8) -0.2045 ( 10)  0.2951 ( 14)
          -0.2094 ( 15) -0.1080 ( 16)  0.1956 ( 17)  0.2774 ( 19)  0.3370 ( 22)
          -0.2233 ( 23)  0.1261 ( 24) -0.3576 ( 25) -0.3212 ( 26) -0.1137 ( 27)
           0.1318 ( 28) -0.2117 ( 29)  0.2315 ( 30)
 CRD  6=   0.1894 ( 32)  0.1195 ( 33)  0.4399 ( 34)  0.3529 ( 35)  0.1116 ( 36)
           0.2154 ( 37)  0.1614 ( 39)  0.2209 ( 40)  0.2909 ( 41)  0.1779 ( 42)
           0.1627 ( 44)  0.1819 ( 45)  0.3689 ( 46)  0.2819 ( 47)  0.1489 ( 48)
           0.2640 ( 49)
 CRD  7=   0.3489 (  2) -0.2439 (  4)  0.2738 (  7) -0.2738 (  8)  0.1668 ( 10)
           0.3479 ( 15)  0.1704 ( 16) -0.2213 ( 18) -0.1674 ( 20) -0.3253 ( 21)
           0.2384 ( 22) -0.2217 ( 24)  0.2624 ( 26) -0.2309 ( 27)  0.2199 ( 30)
 CRD  8=   0.1813 (  1)  0.3719 (  2)  0.1894 (  4)  0.1187 (  5) -0.1148 (  7)
          -0.3590 ( 10)  0.2325 ( 15)  0.3869 ( 16) -0.2067 ( 17)  0.2117 ( 18)
          -0.1803 ( 20) -0.2124 ( 21)  0.2511 ( 24) -0.1354 ( 26) -0.2203 ( 28)
          -0.2801 ( 30)  0.1546 ( 31)
 CRD  9=   0.1130 (  1)  0.1455 (  2)  0.1499 (  4) -0.1960 (  7)  0.1761 (  8)
           0.3870 ( 10)  0.1362 ( 11)  0.1830 ( 13)  0.2303 ( 16) -0.1591 ( 17)
           0.2490 ( 18) -0.1545 ( 22) -0.1138 ( 23) -0.2347 ( 24) -0.1707 ( 26)
           0.2683 ( 27)  0.3795 ( 28) -0.2116 ( 29)  0.2816 ( 30) -0.1679 ( 31)
 CRD 10=  -0.1226 (  1)  0.1874 (  2)  0.1834 (  3) -0.3517 (  4) -0.2488 (  6)
           0.3708 (  8)  0.1957 (  9) -0.1123 ( 10) -0.1542 ( 12)  0.1129 ( 13)
           0.1814 ( 15) -0.1780 ( 16)  0.2762 ( 17) -0.2078 ( 18) -0.2034 ( 21)
          -0.1759 ( 22)  0.2094 ( 24)  0.1218 ( 26)  0.2283 ( 27)  0.1692 ( 28)
          -0.2205 ( 29) -0.1627 ( 30)
 CRD 11=   0.3774 ( 32)  0.3604 ( 33)  0.2306 ( 36)  0.1069 ( 37) -0.1506 ( 39)
           0.2395 ( 40)  0.2565 ( 41) -0.2783 ( 42) -0.3590 ( 43) -0.1574 ( 45)
          -0.3720 ( 48) -0.2913 ( 49) -0.2354 ( 50)
 CRD 12=  -0.1407 (  1)  0.2093 (  2)  0.1954 (  3)  0.2349 (  5) -0.2521 (  6)
          -0.3421 (  7) -0.1100 (  8) -0.3415 (  9)  0.1919 ( 10)  0.1508 ( 11)
           0.2176 ( 12) -0.1504 ( 13) -0.1706 ( 16)  0.2966 ( 17)  0.1231 ( 19)
          -0.1261 ( 20) -0.1516 ( 22)  0.1593 ( 23) -0.1827 ( 26) -0.2064 ( 28)
           0.3027 ( 29)
 CRD 13=   0.1539 (  1) -0.1572 (  2) -0.1755 (  3) -0.1943 (  4) -0.4329 (  5)
          -0.2613 (  6)  0.1433 (  8)  0.1020 (  9)  0.1610 ( 10)  0.3758 ( 11)
           0.2052 ( 12) -0.1555 ( 13)  0.2072 ( 14)  0.1406 ( 16) -0.2512 ( 17)
           0.1297 ( 19)  0.1106 ( 20) -0.1904 ( 21)  0.1471 ( 24) -0.1704 ( 25)
          -0.1733 ( 28)  0.2621 ( 29)
 CRD 14=  -0.1098 (  4) -0.2909 (  5) -0.3942 (  6) -0.1586 (  7) -0.1493 (  8)
          -0.4400 (  9) -0.4011 ( 11) -0.1615 ( 12)  0.1419 ( 13)  0.1381 ( 14)
          -0.1163 ( 17)  0.1860 ( 19) -0.1034 ( 21) -0.1095 ( 22)  0.2043 ( 23)
          -0.1373 ( 24)  0.1816 ( 25)  0.1329 ( 28) -0.1800 ( 29)
 CRD 15=  -0.1435 ( 33)  0.2392 ( 36)  0.3929 ( 37)  0.3805 ( 38)  0.5342 ( 39)
           0.1324 ( 41)  0.1356 ( 43) -0.3548 ( 44) -0.2234 ( 45) -0.1942 ( 46)
          -0.1057 ( 49) -0.2306 ( 51)
 CRD 16=  -0.5214 (  1) -0.5905 (  3)  0.2639 ( 16)  0.2209 ( 17) -0.4849 ( 20)
 CRD 17=   0.5949 ( 12)  0.5548 ( 13) -0.2454 ( 28) -0.2234 ( 29)  0.4688 ( 31)
 CRD 18=  -0.1508 ( 34) -0.2498 ( 35)  0.2239 ( 36)  0.2032 ( 37)  0.2104 ( 38)
           0.1897 ( 39)  0.4511 ( 44)  0.3460 ( 45) -0.2050 ( 46) -0.3040 ( 47)
           0.3106 ( 50)  0.4157 ( 51)
 CRD 19=   0.2562 (  1)  0.1956 (  2)  0.1363 (  4) -0.1275 (  8) -0.2127 ( 10)
          -0.2297 ( 13) -0.2695 ( 15) -0.3540 ( 18)  0.2124 ( 21) -0.3451 ( 22)
          -0.2016 ( 24)  0.3338 ( 26)  0.3629 ( 27)  0.2558 ( 30)  0.1050 ( 31)
 CRD 20=   0.3476 (  1)  0.1665 (  2) -0.1762 (  4)  0.1106 (  6) -0.3444 (  7)
          -0.1461 (  8)  0.1950 ( 10)  0.3084 ( 13) -0.2765 ( 15)  0.1142 ( 16)
           0.1048 ( 17) -0.2190 ( 20)  0.2770 ( 21)  0.1798 ( 22)  0.2752 ( 24)
           0.1650 ( 26) -0.1013 ( 27)  0.1064 ( 28)  0.1037 ( 29) -0.2709 ( 30)
          -0.2101 ( 31)
 CRD 21=  -0.1935 (  3)  0.4017 (  5) -0.5279 (  6)  0.5306 (  9) -0.3965 ( 11)
           0.1779 ( 12)
 CRD 22=   0.1240 (  1) -0.3409 (  3)  0.4980 (  5) -0.2107 (  6)  0.1019 (  7)
          -0.2407 (  9)  0.4989 ( 11) -0.3118 ( 12)  0.1950 ( 13)  0.1427 ( 20)
           0.1099 ( 22)  0.1265 ( 26)
 CRD 23=  -0.5665 ( 36) -0.2824 ( 37)  0.2993 ( 39)  0.2745 ( 40)  0.3566 ( 41)
          -0.1600 ( 42) -0.1411 ( 44)  0.1384 ( 45) -0.1177 ( 46) -0.2822 ( 49)
           0.3481 ( 50)
 CRD 24=  -0.4030 (  1)  0.1204 (  3)  0.4153 (  4) -0.1273 (  5) -0.4080 (  8)
           0.1144 (  9)  0.3600 ( 13) -0.1675 ( 17) -0.1570 ( 18)  0.1936 ( 20)
          -0.1237 ( 21) -0.1259 ( 22)  0.1599 ( 24)  0.1341 ( 26)  0.1610 ( 27)
           0.1751 ( 29) -0.1109 ( 30) -0.2257 ( 31)
 CRD 25=   0.3674 (  3) -0.2111 (  5) -0.3471 (  6)  0.2959 (  9)  0.2655 ( 11)
          -0.3550 ( 12)  0.1008 ( 13) -0.1162 ( 14)  0.1829 ( 16)  0.2008 ( 18)
          -0.1465 ( 19) -0.2310 ( 20)  0.1853 ( 21)  0.1310 ( 23) -0.1924 ( 24)
           0.1199 ( 25) -0.1827 ( 27) -0.1716 ( 28)  0.1971 ( 31)
 CRD 26=   0.1660 ( 34)  0.1315 ( 35)  0.3039 ( 36)  0.1954 ( 37) -0.1351 ( 38)
          -0.2437 ( 39) -0.1916 ( 40) -0.1097 ( 41) -0.3131 ( 42) -0.3646 ( 44)
           0.2660 ( 45) -0.2790 ( 49)  0.5416 ( 50)
 CRD 27=  -0.1050 (  1)  0.3440 (  2) -0.2673 (  3) -0.1169 (  5)  0.2265 (  6)
          -0.3973 (  7)  0.2682 (  9)  0.2697 ( 10) -0.2996 ( 12) -0.1992 ( 16)
           0.1050 ( 19)  0.2672 ( 20)  0.1424 ( 23) -0.1535 ( 27) -0.2340 ( 28)
           0.2877 ( 31)
 CRD 28=   0.2766 ( 32)  0.1747 ( 34) -0.1585 ( 35) -0.2644 ( 38) -0.1779 ( 39)
           0.3611 ( 41) -0.1867 ( 44) -0.1966 ( 46) -0.5298 ( 47)  0.2743 ( 48)
           0.3484 ( 49) -0.2583 ( 51)
 CRD 29=   0.3478 (  1) -0.1249 (  2) -0.2262 (  3) -0.1256 (  4)  0.1907 (  6)
           0.1747 (  7) -0.1897 (  8)  0.1992 (  9) -0.1352 ( 10) -0.1700 ( 12)
           0.3289 ( 13) -0.1103 ( 14)  0.1796 ( 15) -0.1584 ( 16)  0.2460 ( 17)
           0.1799 ( 19) -0.2849 ( 22)  0.1748 ( 23) -0.2709 ( 26)  0.1101 ( 27)
          -0.1110 ( 28)  0.2376 ( 29)  0.1347 ( 30) -0.1266 ( 31)
 CRD 30=   0.1444 (  1) -0.4575 (  2)  0.1509 (  3)  0.1949 (  4)  0.1695 (  5)
          -0.1341 (  8)  0.4335 ( 10) -0.1514 ( 11) -0.1854 ( 12) -0.1301 ( 13)
           0.1202 ( 14)  0.1197 ( 15)  0.1123 ( 16)  0.1042 ( 17) -0.1869 ( 18)
           0.1210 ( 19) -0.2166 ( 20) -0.2399 ( 21)  0.1890 ( 24) -0.1100 ( 25)
           0.1268 ( 27) -0.1578 ( 28)  0.2545 ( 31)
 CRD 31=   0.2400 (  1) -0.2434 (  3)  0.3004 (  4) -0.2698 (  5) -0.1453 (  6)
          -0.2253 (  8)  0.2079 ( 11)  0.2051 ( 12) -0.2560 ( 13) -0.2556 ( 14)
           0.2529 ( 15) -0.2520 ( 16)  0.2493 ( 17) -0.1052 ( 19)  0.2028 ( 25)
           0.2173 ( 28) -0.2582 ( 29) -0.2404 ( 30)
 CRD 32=  -0.1021 (  1)  0.2728 (  2) -0.2868 (  4)  0.4429 (  7) -0.2793 (  8)
          -0.1060 (  9)  0.3503 ( 10) -0.1077 ( 13) -0.1337 ( 15)  0.2222 ( 18)
           0.1037 ( 20)  0.2023 ( 21) -0.1591 ( 22)  0.2400 ( 24) -0.1158 ( 25)
          -0.1526 ( 26)  0.2548 ( 27) -0.1242 ( 30)  0.1603 ( 31)
 CRD 33=   0.1259 (  3) -0.2549 (  4)  0.1939 (  5)  0.2333 (  6) -0.3265 (  8)
           0.2583 (  9)  0.2557 ( 11)  0.1803 ( 12) -0.1624 ( 13)  0.1952 ( 14)
          -0.1297 ( 15)  0.1468 ( 16) -0.1269 ( 17)  0.2494 ( 19) -0.1994 ( 22)
           0.2639 ( 23)  0.2586 ( 25) -0.1956 ( 26)  0.2153 ( 28) -0.2006 ( 29)
          -0.1941 ( 30)
 CRD 34=  -0.3084 ( 33)  0.2701 ( 35)  0.3086 ( 37) -0.4464 ( 38) -0.1396 ( 39)
           0.2281 ( 41)  0.2890 ( 43)  0.1641 ( 44) -0.2863 ( 45) -0.2529 ( 46)
          -0.2181 ( 49)  0.3840 ( 51)
 CRD 35=  -0.3341 ( 32) -0.1016 ( 33) -0.2484 ( 34) -0.1100 ( 35)  0.3400 ( 37)
          -0.3437 ( 38)  0.2922 ( 40)  0.2161 ( 42) -0.1859 ( 43)  0.3750 ( 45)
           0.1260 ( 47) -0.3228 ( 48) -0.3523 ( 51)
 CRD 36=   0.2804 ( 32)  0.4088 ( 35) -0.2105 ( 37)  0.1691 ( 38) -0.3529 ( 40)
           0.3624 ( 42)  0.1061 ( 44)  0.2784 ( 45) -0.3793 ( 46) -0.3553 ( 48)
          -0.2023 ( 51)

 THE DETERMINANT OF THE G MATRIX IS 10**(   -16)


                     --------------------
                     INTERNAL COORDINATES
                     --------------------

                 - - ATOMS - -         COORDINATE      COORDINATE
 NO.   TYPE    I  J  K  L  M  N        (BOHR,RAD)       (ANG,DEG)
 ----------------------------------------------------------------
   1 STRETCH   1  4                     2.0347545       1.0767458
   2 STRETCH   1  2                     2.5303717       1.3390151
   3 STRETCH   1  3                     2.0380970       1.0785145
   4 STRETCH   2  6                     2.6915551       1.4243097
   5 STRETCH   2  5                     2.0380140       1.0784706
   6 STRETCH   6  8                     2.0440515       1.0816656
   7 STRETCH   6  7                     2.5765355       1.3634440
   8 STRETCH   7 10                     2.6425392       1.3983716
   9 STRETCH   7  9                     2.0383561       1.0786517
  10 STRETCH  10 12                     2.4558519       1.2995809
  11 STRETCH  10 11                     2.0401966       1.0796256
  12 STRETCH  12 14                     1.9029589       1.0070025
  13 STRETCH  12 13                     1.8999320       1.0054008
  14 BEND      1  2  6                  2.1133247     121.0845870
  15 BEND      1  2  5                  2.1054750     120.6348291
  16 BEND      2  1  4                  2.1206486     121.5042126
  17 BEND      2  1  3                  2.1240827     121.7009758
  18 BEND      2  6  8                  2.0387940     116.8142928
  19 BEND      2  6  7                  2.1770610     124.7364066
  20 BEND      3  1  4                  2.0384540     116.7948115
  21 BEND      5  2  6                  2.0643856     118.2805839
  22 BEND      6  7  9                  2.1074897     120.7502640
  23 BEND      6  7 10                  2.0876211     119.6118806
  24 BEND      7 10 11                  2.0843637     119.4252453
  25 BEND      7 10 12                  2.1811249     124.9692539
  26 BEND      7  6  8                  2.0673303     118.4493006
  27 BEND      9  7 10                  2.0880745     119.6378554
  28 BEND     10 12 13                  2.1236638     121.6769716
  29 BEND     10 12 14                  2.1255660     121.7859605
  30 BEND     11 10 12                  2.0176966     115.6055008
  31 BEND     13 12 14                  2.0339555     116.5370679
  32 TORSION   1  2  6  8               0.0000000       0.0000000
  33 TORSION   1  2  6  7               3.1415927     180.0000000
  34 TORSION   2  6  7 10               3.1415927     180.0000000
  35 TORSION   2  6  7  9               0.0000000       0.0000000
  36 TORSION   3  1  2  5               3.1415927     180.0000000
  37 TORSION   3  1  2  6               0.0000000       0.0000000
  38 TORSION   4  1  2  5               0.0000000       0.0000000
  39 TORSION   4  1  2  6               3.1415927     180.0000000
  40 TORSION   5  2  6  7               0.0000000       0.0000000
  41 TORSION   5  2  6  8               3.1415927     180.0000000
  42 TORSION   6  7 10 11               0.0000000       0.0000000
  43 TORSION   6  7 10 12               3.1415927     180.0000000
  44 TORSION   7 10 12 13               3.1415927     180.0000000
  45 TORSION   7 10 12 14               0.0000000       0.0000000
  46 TORSION   8  6  7 10               0.0000000       0.0000000
  47 TORSION   8  6  7  9               3.1415927     180.0000000
  48 TORSION   9  7 10 12               0.0000000       0.0000000
  49 TORSION   9  7 10 11               3.1415927     180.0000000
  50 TORSION  11 10 12 14               3.1415927     180.0000000
  51 TORSION  11 10 12 13               0.0000000       0.0000000
1   ATOM  0
                                        -------------------
   COORD  0                             NUCLEAR COORDINATES
                                        -------------------
     VIB  0

                       ATOM             X              Y              Z

                 1  C               -5.785189       0.448180       0.000000
                 2  C               -3.604603      -0.835496       0.000000
                 3  H               -5.828453       2.485817       0.000000
                 4  H               -7.581585      -0.507429       0.000000
                 5  H               -3.599260      -2.873503       0.000000
                 6  C               -1.237669       0.445945       0.000000
                 7  C                1.061445      -0.717074       0.000000
                 8  H               -1.295330       2.489183       0.000000
                 9  H                1.200704      -2.750668       0.000000
                10  C                3.263612       0.743567       0.000000
                11  H                3.116675       2.778466       0.000000
                12  N                5.548965      -0.155526       0.000000
                13  H                7.069355       0.983842       0.000000
                14  H                5.889562      -2.027756       0.000000

          ********************
          1 ELECTRON INTEGRALS
          ********************
 ...... END OF ONE-ELECTRON INTEGRALS ......
 CPU     0: STEP CPU TIME=     0.01 TOTAL CPU TIME=          0.1 (      0.0 MIN)
 TOTAL WALL CLOCK TIME=          0.1 SECONDS, CPU UTILIZATION IS    63.64%

          -------------
          GUESS OPTIONS
          -------------
          GUESS =MOREAD            NORB  =      60          NORDER=       0
          MIX   =       F          PRTMO =       F          PUNMO =       F
          TOLZ  = 1.0E-08          TOLE  = 1.0E-05
          SYMDEN=       F          PURIFY=       F

 INITIAL GUESS ORBITALS GENERATED BY MOREAD   ROUTINE.

 SYMMETRIES FOR INITIAL GUESS ORBITALS FOLLOW.   BOTH SET(S).
    22 ORBITALS ARE OCCUPIED (    6 CORE ORBITALS).
     1=A        2=A        3=A        4=A        5=A        6=A        7=A   
     8=A        9=A       10=A       11=A       12=A       13=A       14=A   
    15=A       16=A       17=A       18=A       19=A       20=A       21=A   
    22=A       23=A       24=A       25=A       26=A       27=A       28=A   
    29=A       30=A       31=A       32=A       33=A       34=A       35=A   
    36=A       37=A       38=A       39=A       40=A       41=A       42=A   
    43=A       44=A       45=A       46=A       47=A       48=A       49=A   
    50=A       51=A       52=A       53=A       54=A       55=A       56=A   
    57=A       58=A       59=A       60=A       61=A       62=A       63=A   
    64=A       65=A       66=A       67=A       68=A       69=A       70=A   
    71=A       72=A       73=A       74=A       75=A       76=A       77=A   
    78=A       79=A       80=A       81=A       82=A       83=A       84=A   
    85=A       86=A       87=A       88=A       89=A       90=A       91=A   
    92=A       93=A       94=A       95=A       96=A       97=A       98=A   
    99=A      100=A      101=A      102=A      103=A      104=A      105=A   
   106=A   
 ...... END OF INITIAL ORBITAL SELECTION ......
 CPU     0: STEP CPU TIME=     0.02 TOTAL CPU TIME=          0.1 (      0.0 MIN)
 TOTAL WALL CLOCK TIME=          0.1 SECONDS, CPU UTILIZATION IS    64.29%

                    ----------------------
                    AO INTEGRAL TECHNOLOGY
                    ----------------------
     S,P,L SHELL ROTATED AXIS INTEGRALS, REPROGRAMMED BY
        KAZUYA ISHIMURA (IMS) AND JOSE SIERRA (SYNSTAR).
     S,P,D,L SHELL ROTATED AXIS INTEGRALS PROGRAMMED BY
        KAZUYA ISHIMURA (INSTITUTE FOR MOLECULAR SCIENCE).
     S,P,D,F,G SHELL TO TOTAL QUARTET ANGULAR MOMENTUM SUM 5,
        ERIC PROGRAM BY GRAHAM FLETCHER (ELORET AND NASA ADVANCED
        SUPERCOMPUTING DIVISION, AMES RESEARCH CENTER).
     S,P,D,F,G,L SHELL GENERAL RYS QUADRATURE PROGRAMMED BY
        MICHEL DUPUIS (PACIFIC NORTHWEST NATIONAL LABORATORY).

          --------------------
          2 ELECTRON INTEGRALS
          --------------------

 THE -PK- OPTION IS OFF, THE INTEGRALS ARE NOT IN SUPERMATRIX FORM.
 STORING   15000 INTEGRALS/RECORD ON DISK, USING 12 BYTES/INTEGRAL.
 TWO ELECTRON INTEGRAL EVALUATION REQUIRES   91216 WORDS OF MEMORY.
 SCHWARZ INEQUALITY OVERHEAD:      5434 INTEGRALS, T=        0.00
 II,JST,KST,LST =  1  1  1  1 NREC =         1 INTLOC =    1
 II,JST,KST,LST =  2  1  1  1 NREC =         1 INTLOC =    1
 II,JST,KST,LST =  3  1  1  1 NREC =         1 INTLOC =    1
 II,JST,KST,LST =  4  1  1  1 NREC =         1 INTLOC =    1
 II,JST,KST,LST =  5  1  1  1 NREC =         1 INTLOC =    1
 II,JST,KST,LST =  6  1  1  1 NREC =         1 INTLOC =    1
 II,JST,KST,LST =  7  1  1  1 NREC =         1 INTLOC =    1
 II,JST,KST,LST =  8  1  1  1 NREC =         1 INTLOC =    1
 II,JST,KST,LST =  9  1  1  1 NREC =         1 INTLOC =    1
 II,JST,KST,LST = 10  1  1  1 NREC =         1 INTLOC =    1
 II,JST,KST,LST = 11  1  1  1 NREC =         1 INTLOC = 3663
 II,JST,KST,LST = 12  1  1  1 NREC =         1 INTLOC = 3663
 II,JST,KST,LST = 13  1  1  1 NREC =         1 INTLOC = 3663
 II,JST,KST,LST = 14  1  1  1 NREC =         1 INTLOC = 4509
 II,JST,KST,LST = 15  1  1  1 NREC =         1 INTLOC = 4509
 II,JST,KST,LST = 16  1  1  1 NREC =         1 INTLOC = 5570
 II,JST,KST,LST = 17  1  1  1 NREC =         1 INTLOC = 6411
 II,JST,KST,LST = 18  1  1  1 NREC =         1 INTLOC =10246
 II,JST,KST,LST = 19  1  1  1 NREC =         3 INTLOC = 1027
 II,JST,KST,LST = 20  1  1  1 NREC =         3 INTLOC = 1027
 II,JST,KST,LST = 21  1  1  1 NREC =         3 INTLOC = 4518
 II,JST,KST,LST = 22  1  1  1 NREC =         5 INTLOC =13450
 II,JST,KST,LST = 23  1  1  1 NREC =         5 INTLOC =13450
 II,JST,KST,LST = 24  1  1  1 NREC =         6 INTLOC = 7522
 II,JST,KST,LST = 25  1  1  1 NREC =         6 INTLOC =11751
 II,JST,KST,LST = 26  1  1  1 NREC =         7 INTLOC = 1060
 II,JST,KST,LST = 27  1  1  1 NREC =         7 INTLOC = 3008
 II,JST,KST,LST = 28  1  1  1 NREC =         7 INTLOC =10099
 II,JST,KST,LST = 29  1  1  1 NREC =        11 INTLOC = 6006
 II,JST,KST,LST = 30  1  1  1 NREC =        11 INTLOC = 6006
 II,JST,KST,LST = 31  1  1  1 NREC =        12 INTLOC =12283
 II,JST,KST,LST = 32  1  1  1 NREC =        14 INTLOC =10399
 II,JST,KST,LST = 33  1  1  1 NREC =        14 INTLOC =14974
 II,JST,KST,LST = 34  1  1  1 NREC =        15 INTLOC = 5163
 II,JST,KST,LST = 35  1  1  1 NREC =        17 INTLOC =13576
 II,JST,KST,LST = 36  1  1  1 NREC =        20 INTLOC =12968
 II,JST,KST,LST = 37  1  1  1 NREC =        22 INTLOC = 7079
 II,JST,KST,LST = 38  1  1  1 NREC =        23 INTLOC = 8351
 II,JST,KST,LST = 39  1  1  1 NREC =        24 INTLOC = 1442
 II,JST,KST,LST = 40  1  1  1 NREC =        24 INTLOC =10538
 SCHWARZ INEQUALITY TEST SKIPPED      111886 INTEGRAL BLOCKS.
 TOTAL NUMBER OF NONZERO TWO-ELECTRON INTEGRALS =             5718179
        388 INTEGRAL RECORDS WERE STORED ON DISK FILE  8.
  ...... END OF TWO-ELECTRON INTEGRALS .....
 CPU     0: STEP CPU TIME=     0.06 TOTAL CPU TIME=          0.2 (      0.0 MIN)
 TOTAL WALL CLOCK TIME=          0.2 SECONDS, CPU UTILIZATION IS    71.43%

 ================================================================================

          Performing a 2SI-2SA-REKS(2,2) calculation for the S0 state

          Weights: WPPS =    0.500000, WOSS =    0.500000

          Applying 0.400 orbital eigenvalue shift, not using DIIS

 ================================================================================

          -------------------
          SA-REKS(2,2)-BHHLYP
          -------------------

     NUCLEAR ENERGY =       205.4842126075
     MAXIT =200     NPUNCH=  2     MULT=  1
     EXTRAP=F  DAMP=F  SHIFT=F  RSTRCT=F  DIIS=F  SOSCF=F
         DENSITY MATRIX CONVERGENCE THRESHOLD=  1.00E-07
            FOCK MATRIX CONVERGENCE THRESHOLD=  1.00E-07
     COARSE -> FINE DFT GRID SWITCH THRESHOLD=  3.00E-04 (SWITCH IN $DFT)
                   HF -> DFT SWITCH THRESHOLD=  0.00E+00 (SWOFF IN $DFT)
     MEMORY REQUIRED FOR REKS ITERS=    610161 WORDS.

     EXCHANGE FUNCTIONAL   =B88&HFX   
     CORRELATION FUNCTIONAL=LYP88     
     DFT THRESHOLD         =.736E-08
 FOR AN EULER-MACLAURIN QUADRATURE USING  96 RADIAL POINTS:
 SMALLEST GAUSSIAN PRIMITIVE EXPONENT=        0.1612777588 OF TYPE -S-
 ON ATOM NUMBER   3 HAS RADIAL NORMALIZATION=  1.000000
  LARGEST GAUSSIAN PRIMITIVE EXPONENT=     4173.5114600000 OF TYPE -S-
 ON ATOM NUMBER  12 HAS RADIAL NORMALIZATION=  1.000000
 ====================================================================================================================

 ITER EX     NR/2           TOTAL ENERGY    OFFDIAG FOCK      E CHANGE    DENSITY CHANGE  DIIS ERROR     VIR. SHIFT

 ====================================================================================================================
   1  0   0.999934755     -249.5814909620   0.000000089  -249.5814909620   0.000000064   0.000000000     0.400000000
   2  1   0.999934755     -249.5814909620   0.000000075     0.0000000000   0.000000054   0.000000000     0.400000000

          -----------------
          DENSITY CONVERGED
          -----------------
     TIME TO FORM FOCK OPERATORS=       0.5 SECONDS (       0.2 SEC/ITER)
     TIME TO SOLVE SCF EQUATIONS=       0.0 SECONDS (       0.0 SEC/ITER)

 FINAL SA-REKS(2,2)-BHHLYP ENERGY IS     -249.5814909620 AFTER   2 ITERATIONS
 SA-REKS(2,2)-BHHLYP:  FON( 22)=1.99986951 FON( 23)=0.00013049

 ====================================================================================================================

 SSR: final printout

 ==============================================================

 Triplet:...............................     -249.561411940778
 Doubly excited singlet (DES):..........     -249.337164307478
 Open Shell Singlet (OSS):..............     -249.503680724885
 Perfectly Paired Singlet (PPS):........     -249.659301199210

 Lagrangian Wrs:........................        0.000928550820
 ==================================================================
 2SI-2SA-REKS(2,2)-BHHLYP states:
                       E_k               C_{PPS}         C_{OSS}
 ------------------------------------------------------------------
 SSR state 0     -249.659312100331     -0.99996498      0.00836897
 SSR state 1     -249.503669823763     -0.00836897     -0.99996498
 ------------------------------------------------------------------

 SSR: the ground state is reported
 SSR: unrelaxed occupation numbers:  FON( 22)=1.99986839 FON( 23)=0.00013161

 SSR: final energy =     -249.659312100331

 SSR: transition dipole between the S1 and S0 states
        Dipole = ( -8.47510253,  0.70157022,  0.00000000); |D| =  8.50409099 Debye

 ====================================================================================================================

          ------------
          EIGENVECTORS
          ------------

                      1          2          3          4          5
                  -15.0550   -10.8564   -10.8039   -10.7932   -10.7874
                     A          A          A          A          A   
    1  C  1  S   -0.000000  -0.000009   0.000376  -0.000073   0.990222
    2  C  1  S    0.000000  -0.000034  -0.000120  -0.000042   0.040483
    3  C  1  X   -0.000009  -0.000008   0.000001  -0.000019   0.000296
    4  C  1  Y    0.000003   0.000006  -0.000008  -0.000007  -0.000102
    5  C  1  Z   -0.000000   0.000000   0.000000  -0.000000   0.000000
    6  C  1  S   -0.000089   0.000404   0.000398   0.000184  -0.012049
    7  C  1  X   -0.000029   0.000141   0.000103   0.000391  -0.000757
    8  C  1  Y   -0.000013  -0.000287  -0.000225   0.000171   0.000423
    9  C  1  Z    0.000000   0.000000   0.000000  -0.000000  -0.000000
   10  C  1 XX   -0.000003   0.000002   0.000095   0.000016  -0.006187
   11  C  1 YY    0.000000   0.000004   0.000038  -0.000018  -0.006381
   12  C  1 ZZ   -0.000003  -0.000021  -0.000042  -0.000013  -0.006909
   13  C  1 XY    0.000001  -0.000006  -0.000015   0.000013  -0.000165
   14  C  1 XZ   -0.000000  -0.000000  -0.000000  -0.000000   0.000000
   15  C  1 YZ    0.000000  -0.000000  -0.000000   0.000000   0.000000
   16  C  2  S   -0.000003  -0.000013   0.014006  -0.001390   0.084742
   17  C  2  S   -0.000019  -0.000085   0.000334  -0.000098   0.003143
   18  C  2  X    0.000013  -0.000007  -0.000210   0.000014   0.000334
   19  C  2  Y   -0.000002   0.000004  -0.000156   0.000039  -0.000179
   20  C  2  Z    0.000000   0.000000   0.000000  -0.000000   0.000000
   21  C  2  S    0.000286   0.000821   0.004352  -0.000422   0.002830
   22  C  2  X    0.000057   0.000975   0.002274  -0.000214  -0.001680
   23  C  2  Y    0.000141   0.000170   0.000349  -0.000182   0.000273
   24  C  2  Z   -0.000000   0.000000   0.000000   0.000000  -0.000000
   25  C  2 XX    0.000009   0.000017  -0.000514   0.000115  -0.000919
   26  C  2 YY   -0.000000  -0.000014  -0.000435   0.000057  -0.000845
   27  C  2 ZZ   -0.000006  -0.000035  -0.000228   0.000013  -0.000684
   28  C  2 XY    0.000005   0.000017  -0.000162   0.000028   0.000043
   29  C  2 XZ   -0.000000  -0.000000   0.000000   0.000000  -0.000000
   30  C  2 YZ    0.000000   0.000000   0.000000  -0.000000  -0.000000
   31  H  3  S    0.000002  -0.000004   0.000000  -0.000053  -0.000233
   32  H  3  S    0.000024   0.000138  -0.000004   0.000016   0.002110
   33  H  4  S   -0.000000  -0.000024  -0.000033   0.000023  -0.000244
   34  H  4  S    0.000004  -0.000003   0.000075   0.000196   0.002081
   35  H  5  S    0.000006  -0.000046  -0.000130   0.000002  -0.000103
   36  H  5  S    0.000028   0.000081  -0.000332  -0.000108  -0.000122
   37  C  6  S   -0.000002   0.000009   0.992838  -0.044720  -0.001629
   38  C  6  S   -0.000003  -0.000115   0.040818  -0.002257  -0.000207
   39  C  6  X   -0.000015  -0.000057   0.000150  -0.000291   0.000066
   40  C  6  Y   -0.000016  -0.000068  -0.000284   0.000176  -0.000049
   41  C  6  Z    0.000000  -0.000000  -0.000000   0.000000  -0.000000
   42  C  6  S   -0.000189  -0.000685  -0.015138   0.006760   0.000007
   43  C  6  X    0.000245   0.000898  -0.000258   0.002637  -0.001152
   44  C  6  Y    0.000120   0.000561   0.002137  -0.000708   0.000541
   45  C  6  Z   -0.000000  -0.000000   0.000000   0.000000   0.000000
   46  C  6 XX   -0.000003   0.000101  -0.005976  -0.000086   0.000086
   47  C  6 YY    0.000005   0.000039  -0.006315  -0.000043   0.000007
   48  C  6 ZZ   -0.000009  -0.000039  -0.006723   0.000171  -0.000024
   49  C  6 XY   -0.000024  -0.000054  -0.000066   0.000078   0.000043
   50  C  6 XZ    0.000000  -0.000000  -0.000000  -0.000000   0.000000
   51  C  6 YZ   -0.000000  -0.000000  -0.000000   0.000000  -0.000000
   52  C  7  S    0.000004   0.005798   0.044214   0.992901   0.000104
   53  C  7  S    0.000050  -0.000100   0.001440   0.041280  -0.000063
   54  C  7  X   -0.000014  -0.000218   0.000309   0.000134  -0.000009
   55  C  7  Y   -0.000006  -0.000213  -0.000177   0.000491   0.000002
   56  C  7  Z   -0.000000  -0.000000  -0.000000   0.000000  -0.000000
   57  C  7  S   -0.000356   0.004844   0.004986  -0.016759   0.000891
   58  C  7  X   -0.000276   0.002042  -0.002219   0.000193  -0.000720
   59  C  7  Y    0.000049   0.001208   0.000364  -0.002793   0.000145
   60  C  7  Z    0.000000  -0.000000  -0.000000  -0.000000   0.000000
   61  C  7 XX   -0.000071  -0.000385  -0.000676  -0.006100   0.000034
   62  C  7 YY    0.000024  -0.000359  -0.000642  -0.006306  -0.000011
   63  C  7 ZZ   -0.000006  -0.000183  -0.000436  -0.006753  -0.000019
   64  C  7 XY    0.000006  -0.000057   0.000127  -0.000003  -0.000002
   65  C  7 XZ    0.000000   0.000000   0.000000   0.000000   0.000000
   66  C  7 YZ   -0.000000  -0.000000  -0.000000  -0.000000  -0.000000
   67  H  8  S   -0.000017  -0.000078  -0.000261  -0.000095  -0.000074
   68  H  8  S   -0.000014  -0.000138   0.001659  -0.000475  -0.000321
   69  H  9  S    0.000014  -0.000094  -0.000129  -0.000259  -0.000032
   70  H  9  S    0.000079   0.000041  -0.000312   0.001535   0.000065
   71  C 10  S    0.000053   0.993887  -0.000299  -0.006236  -0.000004
   72  C 10  S    0.000250   0.040489  -0.000146  -0.000544  -0.000022
   73  C 10  X    0.000198   0.000721  -0.000000   0.000215   0.000008
   74  C 10  Y   -0.000073  -0.000442  -0.000016   0.000224   0.000012
   75  C 10  Z   -0.000000  -0.000000  -0.000000  -0.000000   0.000000
   76  C 10  S    0.000589  -0.011546   0.000013   0.005996   0.000051
   77  C 10  X    0.000282   0.002337  -0.000207  -0.001999  -0.000243
   78  C 10  Y   -0.000431   0.000911   0.000260  -0.001188  -0.000128
   79  C 10  Z   -0.000000   0.000000  -0.000000  -0.000000  -0.000000
   80  C 10 XX   -0.000083  -0.005729   0.000091  -0.000417  -0.000016
   81  C 10 YY   -0.000021  -0.006378   0.000010  -0.000344  -0.000001
   82  C 10 ZZ   -0.000030  -0.006907  -0.000023  -0.000102  -0.000013
   83  C 10 XY    0.000028  -0.000186   0.000020  -0.000190   0.000006
   84  C 10 XZ   -0.000000  -0.000000   0.000000   0.000000  -0.000000
   85  C 10 YZ    0.000000  -0.000000  -0.000000  -0.000000  -0.000000
   86  H 11  S   -0.000015  -0.000211  -0.000026  -0.000100  -0.000011
   87  H 11  S    0.000119   0.001871  -0.000212  -0.000220   0.000117
   88  N 12  S    0.993535  -0.000330  -0.000012   0.000024  -0.000007
   89  N 12  S    0.031070  -0.000019  -0.000055   0.000007  -0.000030
   90  N 12  X   -0.000176   0.000279   0.000029  -0.000020   0.000008
   91  N 12  Y    0.000062  -0.000072   0.000004   0.000003   0.000000
   92  N 12  Z   -0.000000   0.000000   0.000000  -0.000000  -0.000000
   93  N 12  S    0.001502   0.000917   0.000355  -0.000637   0.000208
   94  N 12  X    0.000385   0.000386  -0.000332   0.000319  -0.000123
   95  N 12  Y   -0.000072  -0.000841  -0.000101   0.000172   0.000055
   96  N 12  Z   -0.000000   0.000000   0.000000   0.000000   0.000000
   97  N 12 XX   -0.006386  -0.000659   0.000000   0.000121  -0.000001
   98  N 12 YY   -0.006409  -0.000280  -0.000028   0.000089  -0.000012
   99  N 12 ZZ   -0.006476   0.000037  -0.000031   0.000003  -0.000024
  100  N 12 XY   -0.000024   0.000272   0.000015  -0.000001  -0.000008
  101  N 12 XZ   -0.000000  -0.000000  -0.000000   0.000000   0.000000
  102  N 12 YZ    0.000000   0.000000   0.000000  -0.000000  -0.000000
  103  H 13  S    0.000296   0.000118   0.000028  -0.000038  -0.000001
  104  H 13  S   -0.000249  -0.000056   0.000116   0.000065   0.000024
  105  H 14  S    0.000305  -0.000063  -0.000052   0.000035  -0.000009
  106  H 14  S   -0.000205  -0.000346   0.000073   0.000039   0.000038

                      6          7          8          9         10
                  -10.7808    -1.2777    -1.1267    -1.0601    -0.9588
                     A          A          A          A          A   
    1  C  1  S   -0.085301  -0.000741  -0.065469  -0.119220  -0.099750
    2  C  1  S   -0.003907   0.001167   0.127414   0.234032   0.199407
    3  C  1  X   -0.000303   0.001205   0.058260   0.076460   0.004561
    4  C  1  Y    0.000163  -0.000486  -0.023178  -0.040439  -0.021508
    5  C  1  Z   -0.000000   0.000000  -0.000000   0.000000   0.000000
    6  C  1  S    0.006389   0.005839   0.095779   0.187567   0.166592
    7  C  1  X    0.002266   0.002911   0.010540   0.015755  -0.005747
    8  C  1  Y   -0.000333   0.001205  -0.003573   0.002376   0.004257
    9  C  1  Z   -0.000000   0.000000  -0.000000  -0.000000   0.000000
   10  C  1 XX    0.000209   0.000261   0.005846   0.008293   0.002940
   11  C  1 YY    0.000236  -0.000055   0.000938   0.003381   0.005303
   12  C  1 ZZ    0.000495  -0.000099  -0.006905  -0.012117  -0.009609
   13  C  1 XY    0.000121  -0.000167  -0.003388  -0.004116   0.000490
   14  C  1 XZ   -0.000000   0.000000  -0.000000  -0.000000  -0.000000
   15  C  1 YZ   -0.000000  -0.000000  -0.000000  -0.000000  -0.000000
   16  C  2  S    0.990197  -0.002339  -0.109948  -0.118028  -0.005684
   17  C  2  S    0.041004   0.005782   0.214351   0.234151   0.012841
   18  C  2  X    0.000012   0.001913   0.026739  -0.075650  -0.162685
   19  C  2  Y    0.000447   0.001142   0.047625   0.052727   0.009364
   20  C  2  Z    0.000000   0.000000  -0.000000  -0.000000   0.000000
   21  C  2  S   -0.016050  -0.016951   0.133917   0.132355  -0.007471
   22  C  2  X   -0.000287  -0.004647   0.017122  -0.010798  -0.043661
   23  C  2  Y   -0.002571  -0.007150  -0.006339  -0.022078  -0.001002
   24  C  2  Z   -0.000000   0.000000  -0.000000  -0.000000   0.000000
   25  C  2 XX   -0.005995  -0.000083   0.007738   0.002128  -0.002869
   26  C  2 YY   -0.006268   0.000051   0.002373   0.003341  -0.000265
   27  C  2 ZZ   -0.006722  -0.000101  -0.011035  -0.010757   0.000099
   28  C  2 XY   -0.000122   0.000182   0.001894  -0.005728  -0.011259
   29  C  2 XZ   -0.000000  -0.000000  -0.000000  -0.000000  -0.000000
   30  C  2 YZ   -0.000000   0.000000  -0.000000  -0.000000  -0.000000
   31  H  3  S   -0.000122   0.000123   0.030890   0.060847   0.063044
   32  H  3  S   -0.000654  -0.001525   0.003509   0.002615   0.009925
   33  H  4  S    0.000000   0.000254   0.025569   0.058949   0.073166
   34  H  4  S   -0.000013   0.000444   0.001464   0.009053   0.017025
   35  H  5  S   -0.000254   0.000921   0.049095   0.055478   0.000149
   36  H  5  S    0.001544  -0.000918   0.000403  -0.003821   0.000026
   37  C  6  S   -0.014369  -0.010352  -0.137925   0.009942   0.105769
   38  C  6  S   -0.000827   0.020107   0.271681  -0.020161  -0.215861
   39  C  6  X    0.000237   0.012432   0.016024  -0.141724  -0.010071
   40  C  6  Y    0.000184  -0.002301  -0.046159   0.001104   0.035628
   41  C  6  Z    0.000000   0.000000   0.000000   0.000000   0.000000
   42  C  6  S    0.005921   0.028624   0.174410  -0.016990  -0.161434
   43  C  6  X   -0.002126  -0.010624  -0.000200  -0.057491  -0.011578
   44  C  6  Y   -0.000835  -0.014962   0.016075  -0.002408  -0.015268
   45  C  6  Z    0.000000   0.000000   0.000000  -0.000000   0.000000
   46  C  6 XX   -0.000377   0.001356   0.010325   0.000581   0.002859
   47  C  6 YY   -0.000265  -0.000107   0.002682   0.000395  -0.005310
   48  C  6 ZZ   -0.000036  -0.001132  -0.014169   0.000841   0.009311
   49  C  6 XY   -0.000175  -0.000508  -0.000487   0.009088   0.001515
   50  C  6 XZ   -0.000000  -0.000000   0.000000   0.000000   0.000000
   51  C  6 YZ   -0.000000  -0.000000  -0.000000  -0.000000  -0.000000
   52  C  7  S    0.000772  -0.034770  -0.116370   0.108704   0.004294
   53  C  7  S    0.000004   0.065343   0.227167  -0.215771  -0.008135
   54  C  7  X    0.000007   0.034761  -0.051272  -0.033696   0.180581
   55  C  7  Y    0.000057   0.017217   0.050792  -0.052603   0.019444
   56  C  7  Z    0.000000  -0.000000  -0.000000   0.000000   0.000000
   57  C  7  S   -0.000812   0.049470   0.146147  -0.120793  -0.000152
   58  C  7  X    0.000120   0.030165  -0.013350  -0.009949   0.047364
   59  C  7  Y   -0.000432   0.001897  -0.009030   0.026781   0.009538
   60  C  7  Z    0.000000  -0.000000  -0.000000   0.000000   0.000000
   61  C  7 XX    0.000068   0.005796   0.006251  -0.001715  -0.001053
   62  C  7 YY    0.000051   0.000490   0.002914  -0.004728   0.001444
   63  C  7 ZZ   -0.000011  -0.004112  -0.011412   0.010017   0.000273
   64  C  7 XY   -0.000034   0.003724  -0.003464  -0.002245   0.013203
   65  C  7 XZ   -0.000000  -0.000000  -0.000000   0.000000  -0.000000
   66  C  7 YZ   -0.000000  -0.000000  -0.000000   0.000000  -0.000000
   67  H  8  S   -0.000089   0.005617   0.066969  -0.004449  -0.061153
   68  H  8  S   -0.000375   0.004216  -0.000669   0.001286  -0.003422
   69  H  9  S   -0.000025   0.013303   0.051950  -0.051902  -0.006216
   70  H  9  S   -0.000175   0.001259  -0.001399   0.006993  -0.002825
   71  C 10  S   -0.000019  -0.114183  -0.040153   0.073478  -0.117413
   72  C 10  S   -0.000047   0.229002   0.080129  -0.149576   0.247848
   73  C 10  X   -0.000001   0.117724  -0.095747   0.110707  -0.009356
   74  C 10  Y   -0.000002  -0.056934  -0.015207   0.025362  -0.001926
   75  C 10  Z   -0.000000  -0.000000  -0.000000   0.000000  -0.000000
   76  C 10  S    0.000259   0.049618   0.060705  -0.121731   0.170910
   77  C 10  X   -0.000694  -0.018159  -0.026306   0.035205  -0.013692
   78  C 10  Y    0.000041   0.033454  -0.001252  -0.003855   0.028112
   79  C 10  Z    0.000000  -0.000000  -0.000000   0.000000  -0.000000
   80  C 10 XX    0.000002   0.013103   0.001109  -0.000807  -0.004011
   81  C 10 YY   -0.000016  -0.003090   0.002711  -0.004536   0.006441
   82  C 10 ZZ   -0.000013  -0.014912  -0.003956   0.007181  -0.011752
   83  C 10 XY    0.000006  -0.009736   0.007548  -0.008286   0.001606
   84  C 10 XZ   -0.000000  -0.000000   0.000000  -0.000000  -0.000000
   85  C 10 YZ   -0.000000   0.000000   0.000000  -0.000000   0.000000
   86  H 11  S   -0.000042   0.039722   0.022674  -0.043139   0.087682
   87  H 11  S    0.000047  -0.009864   0.003249  -0.001484   0.012064
   88  N 12  S   -0.000008  -0.187104   0.042095  -0.049524   0.052794
   89  N 12  S   -0.000035   0.390947  -0.091421   0.108071  -0.118010
   90  N 12  X    0.000000  -0.064430  -0.027491   0.072220  -0.209686
   91  N 12  Y   -0.000011   0.023561  -0.000789  -0.008667   0.078803
   92  N 12  Z   -0.000000   0.000000   0.000000  -0.000000   0.000000
   93  N 12  S    0.000430   0.401520  -0.090063   0.117795  -0.143723
   94  N 12  X   -0.000128  -0.032164  -0.016283   0.034572  -0.100670
   95  N 12  Y    0.000168   0.005469   0.004409  -0.006789   0.030991
   96  N 12  Z   -0.000000   0.000000   0.000000  -0.000000   0.000000
   97  N 12 XX   -0.000006   0.012948  -0.000226  -0.001087   0.003473
   98  N 12 YY   -0.000014   0.010838  -0.004831   0.007001  -0.012822
   99  N 12 ZZ   -0.000018  -0.016170   0.002812  -0.003415   0.003217
  100  N 12 XY   -0.000004  -0.000491  -0.001679   0.003251  -0.008641
  101  N 12 XZ    0.000000   0.000000   0.000000  -0.000000   0.000000
  102  N 12 YZ   -0.000000   0.000000  -0.000000   0.000000  -0.000000
  103  H 13  S   -0.000026   0.097904  -0.037382   0.057395  -0.097553
  104  H 13  S    0.000003  -0.002646  -0.000656   0.003825  -0.015200
  105  H 14  S    0.000009   0.097947  -0.030129   0.044771  -0.096599
  106  H 14  S    0.000057  -0.006251   0.001356   0.001893  -0.018570

                     11         12         13         14         15
                   -0.8837    -0.8448    -0.8113    -0.7761    -0.7261
                     A          A          A          A          A   
    1  C  1  S    0.068711  -0.076607   0.011448  -0.038450   0.014430
    2  C  1  S   -0.139157   0.155806  -0.022337   0.078234  -0.030806
    3  C  1  X    0.050473  -0.090104  -0.007049  -0.112541   0.234534
    4  C  1  Y   -0.001459   0.073882  -0.101341   0.124155   0.119407
    5  C  1  Z   -0.000000   0.000000  -0.000000   0.000000   0.000000
    6  C  1  S   -0.130950   0.156528  -0.019206   0.110678  -0.047912
    7  C  1  X    0.018955  -0.030680  -0.009145  -0.029320   0.096068
    8  C  1  Y   -0.002460   0.019574  -0.039688   0.038266   0.063914
    9  C  1  Z   -0.000000   0.000000   0.000000   0.000000  -0.000000
   10  C  1 XX   -0.000212  -0.000508   0.000017  -0.000727  -0.002325
   11  C  1 YY   -0.005347   0.007600  -0.001941   0.007302  -0.001577
   12  C  1 ZZ    0.006335  -0.007091   0.001426  -0.003479   0.000908
   13  C  1 XY   -0.003544   0.008584  -0.003613   0.008872  -0.009023
   14  C  1 XZ   -0.000000   0.000000   0.000000  -0.000000  -0.000000
   15  C  1 YZ    0.000000  -0.000000  -0.000000   0.000000   0.000000
   16  C  2  S   -0.034285   0.085466  -0.044130   0.057304  -0.016087
   17  C  2  S    0.068978  -0.174998   0.088799  -0.116100   0.037932
   18  C  2  X    0.114376  -0.080584  -0.042521   0.077252   0.011302
   19  C  2  Y    0.013561   0.080435  -0.161662   0.065165   0.236418
   20  C  2  Z   -0.000000   0.000000   0.000000   0.000000  -0.000000
   21  C  2  S    0.068089  -0.159955   0.102934  -0.151026   0.002810
   22  C  2  X    0.031605  -0.019635   0.002233   0.019676  -0.003836
   23  C  2  Y   -0.003160   0.039623  -0.053276   0.014089   0.074733
   24  C  2  Z   -0.000000   0.000000  -0.000000   0.000000  -0.000000
   25  C  2 XX   -0.000836   0.004269  -0.000846   0.006385  -0.004818
   26  C  2 YY    0.002786  -0.006828   0.004389  -0.006391  -0.003428
   27  C  2 ZZ   -0.003147   0.006999  -0.003746   0.004564  -0.000433
   28  C  2 XY    0.008606  -0.003822  -0.004900   0.001284  -0.001396
   29  C  2 XZ    0.000000  -0.000000  -0.000000  -0.000000   0.000000
   30  C  2 YZ   -0.000000   0.000000  -0.000000   0.000000  -0.000000
   31  H  3  S   -0.055394   0.100325  -0.059708   0.099136   0.044464
   32  H  3  S   -0.016635   0.042148  -0.027720   0.047810   0.018969
   33  H  4  S   -0.072178   0.083935   0.013495   0.057359  -0.152985
   34  H  4  S   -0.021983   0.029099   0.001132   0.026225  -0.074935
   35  H  5  S    0.020295  -0.108389   0.116032  -0.083202  -0.109186
   36  H  5  S    0.000792  -0.036772   0.053741  -0.038005  -0.066655
   37  C  6  S   -0.055042  -0.026368   0.062028  -0.030040   0.028242
   38  C  6  S    0.115521   0.052545  -0.127165   0.065976  -0.061654
   39  C  6  X   -0.111138   0.151214   0.069542   0.032419  -0.223754
   40  C  6  Y    0.034159   0.109883  -0.191832  -0.078705   0.066246
   41  C  6  Z   -0.000000  -0.000000   0.000000  -0.000000   0.000000
   42  C  6  S    0.081825   0.050687  -0.148336   0.053999  -0.045185
   43  C  6  X   -0.032954   0.043700   0.025921  -0.024744  -0.077146
   44  C  6  Y    0.024538   0.043921  -0.065384  -0.026290   0.018865
   45  C  6  Z   -0.000000  -0.000000   0.000000  -0.000000   0.000000
   46  C  6 XX   -0.003540  -0.001338   0.004226  -0.006166   0.005226
   47  C  6 YY    0.004847   0.002564  -0.009050   0.001114  -0.000151
   48  C  6 ZZ   -0.004375  -0.002684   0.005347  -0.001577   0.001689
   49  C  6 XY    0.008457  -0.008354  -0.002377  -0.008370   0.003826
   50  C  6 XZ    0.000000  -0.000000   0.000000  -0.000000   0.000000
   51  C  6 YZ   -0.000000  -0.000000   0.000000   0.000000  -0.000000
   52  C  7  S    0.089059  -0.010466  -0.058403  -0.024993  -0.024654
   53  C  7  S   -0.181357   0.021299   0.118096   0.047266   0.047564
   54  C  7  X   -0.059532  -0.078217  -0.038634  -0.155049   0.239859
   55  C  7  Y    0.062953   0.121583  -0.105759  -0.190214  -0.141745
   56  C  7  Z    0.000000  -0.000000   0.000000  -0.000000   0.000000
   57  C  7  S   -0.155496   0.011452   0.125034   0.094916   0.090251
   58  C  7  X   -0.033634  -0.018980  -0.011429  -0.047076   0.082667
   59  C  7  Y    0.032458   0.030779  -0.042874  -0.052724  -0.047716
   60  C  7  Z    0.000000  -0.000000   0.000000  -0.000000   0.000000
   61  C  7 XX    0.004139  -0.004548  -0.004914   0.001887  -0.005022
   62  C  7 YY   -0.006515   0.000564   0.006384   0.003196   0.009455
   63  C  7 ZZ    0.007227  -0.000585  -0.004602  -0.002470  -0.002186
   64  C  7 XY   -0.000500  -0.004599   0.001272  -0.012502   0.009255
   65  C  7 XZ    0.000000   0.000000  -0.000000   0.000000  -0.000000
   66  C  7 YZ    0.000000  -0.000000   0.000000  -0.000000   0.000000
   67  H  8  S    0.062981   0.074251  -0.151397  -0.013019   0.012668
   68  H  8  S    0.019510   0.033977  -0.072214  -0.011142   0.013353
   69  H  9  S   -0.103361  -0.051896   0.102736   0.113389   0.110882
   70  H  9  S   -0.037079  -0.031867   0.043122   0.058601   0.062938
   71  C 10  S   -0.056304   0.010540   0.010256   0.038072  -0.005458
   72  C 10  S    0.120599  -0.027840  -0.024731  -0.075117   0.012483
   73  C 10  X    0.164222  -0.104474  -0.037832   0.294546  -0.124672
   74  C 10  Y    0.174090   0.164602   0.091292  -0.116521  -0.078453
   75  C 10  Z   -0.000000  -0.000000  -0.000000   0.000000   0.000000
   76  C 10  S    0.099518   0.003805   0.005630  -0.136446   0.011420
   77  C 10  X    0.023971  -0.028755   0.003288   0.072680  -0.014493
   78  C 10  Y    0.050723   0.047095   0.012647  -0.049056  -0.038411
   79  C 10  Z    0.000000  -0.000000   0.000000   0.000000   0.000000
   80  C 10 XX    0.002830   0.002585   0.003577   0.013932  -0.004034
   81  C 10 YY    0.000801   0.002036   0.000448  -0.015408   0.000653
   82  C 10 ZZ   -0.006896   0.002187   0.001611  -0.000058   0.001278
   83  C 10 XY   -0.005732   0.009524   0.013822  -0.007736   0.015538
   84  C 10 XZ   -0.000000   0.000000  -0.000000  -0.000000  -0.000000
   85  C 10 YZ   -0.000000  -0.000000  -0.000000   0.000000  -0.000000
   86  H 11  S    0.118434   0.072630   0.032924  -0.114118  -0.031872
   87  H 11  S    0.049002   0.037592   0.019721  -0.054421  -0.015000
   88  N 12  S    0.015652  -0.006239   0.002212  -0.010848   0.009640
   89  N 12  S   -0.034655   0.012517  -0.003472   0.026854  -0.021986
   90  N 12  X   -0.111301   0.254906   0.198729  -0.216566   0.151223
   91  N 12  Y    0.271650   0.137362   0.241568   0.204770   0.118840
   92  N 12  Z   -0.000000   0.000000  -0.000000   0.000000  -0.000000
   93  N 12  S   -0.055215   0.039201  -0.015433   0.015165  -0.040800
   94  N 12  X   -0.044181   0.123319   0.111310  -0.099383   0.083154
   95  N 12  Y    0.138860   0.084735   0.140280   0.112856   0.071532
   96  N 12  Z   -0.000000   0.000000  -0.000000   0.000000  -0.000000
   97  N 12 XX    0.003390   0.002631   0.006516   0.002708   0.008881
   98  N 12 YY   -0.010798   0.003263  -0.003131  -0.013011  -0.004217
   99  N 12 ZZ    0.001471  -0.000921   0.000328   0.000592  -0.000077
  100  N 12 XY   -0.003910   0.009150   0.011429   0.000034   0.011097
  101  N 12 XZ   -0.000000  -0.000000  -0.000000   0.000000  -0.000000
  102  N 12 YZ   -0.000000  -0.000000  -0.000000   0.000000  -0.000000
  103  H 13  S    0.019410   0.152652   0.161232  -0.019724   0.108805
  104  H 13  S    0.000230   0.045050   0.052633  -0.014359   0.053179
  105  H 14  S   -0.155981  -0.039088  -0.107333  -0.124658  -0.062793
  106  H 14  S   -0.040876  -0.007397  -0.031164  -0.050616  -0.023589

                     16         17         18         19         20
                   -0.6921    -0.6520    -0.6387    -0.6380    -0.6014
                     A          A          A          A          A   
    1  C  1  S   -0.006247  -0.014889  -0.006635  -0.000000  -0.008349
    2  C  1  S    0.010728   0.035309   0.016470   0.000000   0.020417
    3  C  1  X   -0.084847   0.295663   0.172535  -0.000000  -0.112079
    4  C  1  Y    0.253996  -0.126541   0.171539  -0.000000  -0.251224
    5  C  1  Z   -0.000000   0.000000   0.000000   0.024597  -0.000000
    6  C  1  S    0.038272   0.023402   0.014787  -0.000000  -0.002153
    7  C  1  X   -0.018879   0.105340   0.070457  -0.000000  -0.083382
    8  C  1  Y    0.100230  -0.047194   0.085042  -0.000000  -0.118837
    9  C  1  Z   -0.000000   0.000000   0.000000   0.012435  -0.000000
   10  C  1 XX   -0.005102  -0.000006  -0.010940   0.000000   0.021963
   11  C  1 YY    0.012124  -0.010135   0.008865  -0.000000  -0.022760
   12  C  1 ZZ   -0.000944  -0.000197   0.000188   0.000000  -0.000126
   13  C  1 XY    0.005287  -0.012867  -0.009701   0.000000   0.012169
   14  C  1 XZ   -0.000000   0.000000   0.000000   0.002283  -0.000000
   15  C  1 YZ    0.000000  -0.000000  -0.000000  -0.000912   0.000000
   16  C  2  S    0.002596   0.002981  -0.016262   0.000000  -0.001729
   17  C  2  S   -0.005773  -0.002999   0.035750  -0.000000   0.009330
   18  C  2  X    0.240714  -0.271002  -0.024440  -0.000000   0.126856
   19  C  2  Y    0.018200   0.190067   0.017833   0.000000   0.285028
   20  C  2  Z   -0.000000   0.000000   0.000000   0.053980  -0.000000
   21  C  2  S    0.006850  -0.053400   0.034382  -0.000000  -0.000389
   22  C  2  X    0.079639  -0.077588  -0.012497  -0.000000   0.028700
   23  C  2  Y    0.010312   0.061092  -0.009362   0.000000   0.148278
   24  C  2  Z   -0.000000   0.000000   0.000000   0.028562  -0.000000
   25  C  2 XX    0.001002   0.006513  -0.001380   0.000000   0.020975
   26  C  2 YY    0.000518  -0.013355   0.000316  -0.000000  -0.028300
   27  C  2 ZZ   -0.000090   0.000780  -0.000627  -0.000000   0.000693
   28  C  2 XY    0.003666  -0.014047  -0.010410   0.000000   0.009041
   29  C  2 XZ    0.000000  -0.000000  -0.000000   0.002511   0.000000
   30  C  2 YZ    0.000000   0.000000   0.000000   0.002335  -0.000000
   31  H  3  S    0.150072  -0.069914   0.107650  -0.000000  -0.168553
   32  H  3  S    0.089010  -0.056888   0.065103  -0.000000  -0.139619
   33  H  4  S   -0.015335  -0.107559  -0.136396   0.000000   0.157895
   34  H  4  S   -0.004629  -0.080166  -0.094356   0.000000   0.106500
   35  H  5  S   -0.010737  -0.121509   0.002886  -0.000000  -0.200820
   36  H  5  S   -0.004810  -0.089730  -0.014602   0.000000  -0.159889
   37  C  6  S    0.010116   0.007613   0.008292  -0.000000  -0.025559
   38  C  6  S   -0.016998  -0.015871  -0.011770   0.000000   0.060278
   39  C  6  X   -0.129850   0.189566   0.162358  -0.000000  -0.160586
   40  C  6  Y   -0.230506  -0.059097  -0.218668   0.000000  -0.219457
   41  C  6  Z    0.000000  -0.000000   0.000000   0.110153   0.000000
   42  C  6  S   -0.055152  -0.026816  -0.071022   0.000000   0.065110
   43  C  6  X   -0.035971   0.046779   0.021829   0.000000  -0.058222
   44  C  6  Y   -0.091675  -0.023064  -0.085958   0.000000  -0.104914
   45  C  6  Z    0.000000  -0.000000   0.000000   0.059764   0.000000
   46  C  6 XX    0.002754   0.005992   0.016673  -0.000000   0.012442
   47  C  6 YY   -0.009538  -0.007015  -0.022061   0.000000  -0.019435
   48  C  6 ZZ    0.001316   0.000510   0.001312  -0.000000  -0.000499
   49  C  6 XY    0.004952  -0.015292  -0.000910  -0.000000   0.004960
   50  C  6 XZ    0.000000  -0.000000  -0.000000   0.005316   0.000000
   51  C  6 YZ    0.000000   0.000000  -0.000000  -0.003542  -0.000000
   52  C  7  S    0.016345  -0.017112  -0.015229   0.000000  -0.000275
   53  C  7  S   -0.036374   0.033922   0.038085  -0.000000   0.003056
   54  C  7  X   -0.050502  -0.255416  -0.081164  -0.000000   0.034539
   55  C  7  Y   -0.077263  -0.090988   0.312429  -0.000000   0.088941
   56  C  7  Z    0.000000  -0.000000   0.000000   0.182526   0.000000
   57  C  7  S   -0.028208   0.083165   0.036532  -0.000000  -0.002068
   58  C  7  X   -0.024591  -0.059468  -0.052903   0.000000   0.015774
   59  C  7  Y   -0.028173  -0.023482   0.151420  -0.000000   0.044035
[...]
                   Z -0.00000001  0.00000006 -0.00000003 -0.00000000 -0.00000002
  6   C            X -0.08339566 -0.00384499  0.06366146 -0.16928447  0.00350593
                   Y  0.00762753  0.00030093 -0.00404628  0.02668100 -0.08018978
                   Z -0.00000001  0.00000003  0.00000000 -0.00000007  0.00000000
  7   C            X  0.00690676 -0.05917696 -0.00104086  0.18183840 -0.00458214
                   Y -0.03115181 -0.01101271  0.01531609 -0.01738603  0.00891416
                   Z  0.00000003 -0.00000001 -0.00000002  0.00000000  0.00000000
  8   H            X  0.11184577  0.04920873 -0.09141617  0.19050777 -0.02178144
                   Y  0.01596240 -0.00314556 -0.00928689  0.04648690  0.91251286
                   Z  0.00000002  0.00000001 -0.00000002  0.00000004 -0.00000000
  9   H            X  0.02323928  0.07656757 -0.01134896 -0.17203935  0.00334628
                   Y -0.04419209 -0.00469874  0.02049948 -0.05222817 -0.08363977
                   Z -0.00000003  0.00000008  0.00000001 -0.00000026  0.00000000
 10   C            X  0.15449353  0.03681649 -0.12922062 -0.08377027 -0.00057636
                   Y  0.00845104  0.01960834  0.01355377 -0.02039840  0.00297589
                   Z -0.00000000  0.00000001 -0.00000000  0.00000002  0.00000000
 11   H            X -0.26757394 -0.06962269  0.15721171  0.15795387  0.00452933
                   Y -0.02153643  0.01882387  0.04123271 -0.01566078 -0.03201304
                   Z -0.00000000 -0.00000010  0.00000005 -0.00000010 -0.00000002
 12   N            X -0.03517451  0.03265052  0.12104185  0.01809384  0.00033797
                   Y -0.01083520 -0.02002456 -0.03749587  0.00048565  0.00002193
                   Z -0.00000001 -0.00000001  0.00000001  0.00000002  0.00000000
 13   H            X -0.30167441 -0.20036883 -0.17613760 -0.00476960  0.00170997
                   Y  0.32947571  0.28549257  0.36598404  0.01742755  0.00080916
                   Z  0.00000000  0.00000001 -0.00000001  0.00000003  0.00000000
 14   H            X -0.29120796 -0.28723081 -0.43090192 -0.07129669  0.00018890
                   Y -0.05296167 -0.07682171 -0.14035299 -0.00628693 -0.00049586
                   Z -0.00000002 -0.00000002  0.00000002 -0.00000003 -0.00000000

 TRANS. SAYVETZ    X  0.00000000 -0.00000000 -0.00000000  0.00000000  0.00000000
                   Y -0.00000000  0.00000000  0.00000000  0.00000000  0.00000000
                   Z -0.00000000  0.00000000 -0.00000000 -0.00000000  0.00000000
               TOTAL  0.00000000  0.00000000  0.00000000  0.00000000  0.00000000

   ROT. SAYVETZ    X -0.00000000  0.00000000 -0.00000000 -0.00000000  0.00000000
                   Y -0.00000000  0.00000000 -0.00000000 -0.00000000  0.00000000
                   Z  0.00000000  0.00000000 -0.00000000  0.00000000  0.00000000
               TOTAL  0.00000000  0.00000000  0.00000000  0.00000000  0.00000000

                           36          37          38          39          40
       FREQUENCY:      3284.14     3303.31     3309.01     3317.86     3382.37  
        SYMMETRY:         A           A           A           A           A   
    REDUCED MASS:      1.06278     1.09468     1.09371     1.09382     1.11848
    IR INTENSITY:      0.01577     0.00055     0.00805     0.03434     0.02787

  1   C            X  0.04932658  0.00141702 -0.00255859 -0.00016593 -0.05629840
                   Y -0.04269331 -0.00451491  0.01368162  0.00039171 -0.07582281
                   Z -0.00000000  0.00000000 -0.00000000 -0.00000000 -0.00000000
  2   C            X -0.00610641 -0.00054907  0.00269624  0.00040807  0.00124704
                   Y -0.00165467  0.02556270 -0.07872026 -0.00072247 -0.00890649
                   Z  0.00000000 -0.00000000 -0.00000000 -0.00000000 -0.00000000
  3   H            X -0.00954921 -0.00075931 -0.00001349 -0.00028550 -0.01213215
                   Y  0.74297297  0.04275676 -0.11719456 -0.00399554  0.55899246
                   Z -0.00000000  0.00000000 -0.00000000  0.00000000 -0.00000000
  4   H            X -0.50104682  0.00271876 -0.01956958  0.00080287  0.66287894
                   Y -0.27591748  0.00170343 -0.01196585  0.00055515  0.35233983
                   Z  0.00000000 -0.00000001 -0.00000000  0.00000001 -0.00000000
  5   H            X  0.00147840  0.00163899  0.00115957  0.00107790 -0.00221013
                   Y  0.06177589 -0.28747103  0.89116579  0.01156465  0.09369738
                   Z -0.00000000 -0.00000001  0.00000000 -0.00000001  0.00000001
  6   C            X  0.00071179 -0.00441032  0.00175478 -0.00219717  0.00042355
                   Y -0.01995646 -0.00221032 -0.01018380 -0.00414503 -0.00067562
                   Z -0.00000000 -0.00000000 -0.00000000 -0.00000000 -0.00000000
  7   C            X -0.00106448  0.00540899  0.00050294  0.00571944  0.00008712
                   Y  0.00280451 -0.07710185 -0.02354038 -0.02073133  0.00016713
                   Z  0.00000000 -0.00000000 -0.00000000 -0.00000000 -0.00000000
  8   H            X -0.00324169 -0.00329796 -0.00179785 -0.00324909  0.00221739
                   Y  0.22895704  0.03975198  0.13524661  0.05862287  0.01050435
                   Z -0.00000000  0.00000000  0.00000000  0.00000000 -0.00000000
  9   H            X  0.00046606 -0.05555526 -0.01981720 -0.01332599 -0.00066199
                   Y -0.02615756  0.87056306  0.26668717  0.25961047 -0.00008051
                   Z  0.00000000  0.00000002  0.00000001  0.00000001 -0.00000000
 10   C            X -0.00015108  0.00116608  0.00027474  0.00616030 -0.00013267
                   Y  0.00037370  0.02325248  0.00919606 -0.08129546 -0.00003905
                   Z -0.00000000  0.00000000 -0.00000000  0.00000000 -0.00000000
 11   H            X  0.00084929  0.01940331  0.00816441 -0.06264184  0.00013612
                   Y -0.00360393 -0.24256733 -0.09408435  0.91200526 -0.00002422
                   Z  0.00000000 -0.00000000  0.00000001 -0.00000000  0.00000001
 12   N            X  0.00009736  0.00021521  0.00011307 -0.00219383  0.00001587
                   Y  0.00000174 -0.00110859 -0.00047504  0.00348221  0.00001755
                   Z -0.00000000 -0.00000000 -0.00000000 -0.00000000 -0.00000000
 13   H            X  0.00093974 -0.00015980 -0.00040102 -0.00580666  0.00048010
                   Y  0.00047941  0.00426312  0.00123608 -0.00958587  0.00033514
                   Z -0.00000000  0.00000000 -0.00000000  0.00000000 -0.00000000
 14   H            X  0.00013474 -0.00308875 -0.00108845 -0.00426170  0.00005771
                   Y -0.00071091  0.00328384  0.00196554 -0.00905205 -0.00063145
                   Z  0.00000000 -0.00000000 -0.00000000 -0.00000000 -0.00000000

 TRANS. SAYVETZ    X  0.00000000 -0.00000000  0.00000000  0.00000000 -0.00000000
                   Y  0.00000000  0.00000000  0.00000000  0.00000000  0.00000000
                   Z -0.00000000  0.00000000 -0.00000000 -0.00000000 -0.00000000
               TOTAL  0.00000000  0.00000000  0.00000000  0.00000000  0.00000000

   ROT. SAYVETZ    X -0.00000000  0.00000000 -0.00000000 -0.00000000 -0.00000000
                   Y -0.00000000  0.00000000 -0.00000000 -0.00000000 -0.00000000
                   Z  0.00000000  0.00000000  0.00000000 -0.00000000  0.00000000
               TOTAL  0.00000000  0.00000000  0.00000000  0.00000000  0.00000000

                           41          42
       FREQUENCY:      3667.89     3780.55  
        SYMMETRY:         A           A   
    REDUCED MASS:      1.04917     1.10598
    IR INTENSITY:      9.65854     3.59018

  1   C            X  0.00031179 -0.00005575
                   Y -0.00043855  0.00005344
                   Z -0.00000000  0.00000000
  2   C            X -0.00108804  0.00016372
                   Y  0.00016146 -0.00001142
                   Z -0.00000000  0.00000000
  3   H            X  0.00013281  0.00005115
                   Y  0.00076484 -0.00006076
                   Z  0.00000000  0.00000000
  4   H            X  0.00031264  0.00001774
                   Y  0.00030085  0.00003341
                   Z  0.00000000 -0.00000000
  5   H            X -0.00002787 -0.00018209
                   Y -0.00082576 -0.00007608
                   Z -0.00000000 -0.00000000
  6   C            X  0.00216144 -0.00025226
                   Y -0.00057566  0.00006328
                   Z  0.00000000  0.00000000
  7   C            X -0.00323978  0.00067140
                   Y  0.00018753  0.00022489
                   Z  0.00000000  0.00000000
  8   H            X -0.00041161  0.00006861
                   Y  0.00062836 -0.00039086
                   Z -0.00000000  0.00000000
  9   H            X  0.00163122  0.00082536
                   Y -0.00098661 -0.00092719
                   Z -0.00000000 -0.00000000
 10   C            X -0.00142761  0.00080547
                   Y  0.00139281 -0.00113648
                   Z -0.00000000  0.00000000
 11   H            X -0.00308289 -0.00298548
                   Y  0.00479846  0.01533141
                   Z -0.00000000 -0.00000000
 12   N            X  0.04740866 -0.03579632
                   Y -0.02769240 -0.07446937
                   Z  0.00000000  0.00000000
 13   H            X -0.48729776  0.58820404
                   Y -0.37397278  0.44685058
                   Z -0.00000000 -0.00000000
 14   H            X -0.13088829 -0.10449952
                   Y  0.74539725  0.58354313
                   Z  0.00000000  0.00000000

 TRANS. SAYVETZ    X  0.00000000 -0.00000000
                   Y  0.00000000 -0.00000000
                   Z  0.00000000  0.00000000
               TOTAL  0.00000000  0.00000000

   ROT. SAYVETZ    X  0.00000000  0.00000000
                   Y  0.00000000  0.00000000
                   Z  0.00000000 -0.00000000
               TOTAL  0.00000000  0.00000000

 REFERENCE ON SAYVETZ CONDITIONS - A. SAYVETZ, J.CHEM.PHYS., 7, 383-389(1939).

 NOTE - THE MODES J,K ARE ORTHONORMALIZED ACCORDING TO
 SUM ON I   M(I) * (X(I,J)*X(I,K) + Y(I,J)*Y(I,K) + Z(I,J)*Z(I,K)) = DELTA(J,K)

  MODE FREQ(CM**-1)  SYMMETRY  RED. MASS  IR INTENS.
     1       0.003    A        2.731592    0.000000
     2       0.000    A        4.975910    0.000000
     3       0.000    A        5.382702    0.000000
     4       0.000    A        4.994373    0.000000
     5       0.000    A        3.497807    0.000000
     6       0.003    A        2.731324    0.000000
     7     108.075    A        3.597245    0.128605
     8     167.677    A        3.111612    0.028177
     9     224.463    A        2.514960    0.018129
    10     302.620    A        1.780112    0.005690
    11     381.972    A        2.625982    0.020224
    12     460.914    A        4.465767    0.058346
    13     592.535    A        2.600923    0.125506
    14     634.991    A        1.138878    0.020610
    15     705.243    A        1.239164    3.369994
    16     760.088    A        1.440584    2.977938
    17     946.896    A        1.544894    0.979765
    18    1015.026    A        1.407758    0.294669
    19    1027.189    A        1.411596    0.593585
    20    1070.281    A        1.136162    0.486603
    21    1093.686    A        1.384698    0.524835
    22    1099.724    A        1.388059    0.067823
    23    1139.246    A        1.216334    0.936195
    24    1279.266    A        2.178175    0.273417
    25    1341.361    A        1.493155    8.169469
    26    1361.589    A        1.356449    2.326051
    27    1398.811    A        1.332201    0.168689
    28    1408.296    A        1.572149    0.045273
    29    1461.813    A        1.723923    0.790902
    30    1525.426    A        1.362855    1.694935
    31    1656.640    A        1.883736    1.844917
    32    1742.185    A        2.288639    1.579272
    33    1809.999    A        2.140119    4.159822
    34    1848.003    A        5.492761   59.993788
    35    3276.552    A        1.090992    0.008246
    36    3284.140    A        1.062776    0.015767
    37    3303.313    A        1.094678    0.000554
    38    3309.009    A        1.093712    0.008048
    39    3317.861    A        1.093820    0.034337
    40    3382.367    A        1.118478    0.027865
    41    3667.893    A        1.049167    9.658538
    42    3780.554    A        1.105978    3.590182

     -------------------------------
     THERMOCHEMISTRY AT T=  298.15 K
     -------------------------------

 USING IDEAL GAS, RIGID ROTOR, HARMONIC NORMAL MODE APPROXIMATIONS.
 P=  1.01325E+05 PASCAL.
 ALL FREQUENCIES ARE SCALED BY   1.00000
 THE MOMENTS OF INERTIA ARE (IN AMU*BOHR**2)
             67.88396          1351.89987          1419.78383
 THE ROTATIONAL SYMMETRY NUMBER IS  1.0
 THE ROTATIONAL CONSTANTS ARE (IN GHZ)
     26.56133     1.33374     1.26997
      7 -     42 VIBRATIONAL MODES ARE USED IN THERMOCHEMISTRY.
 THE HARMONIC ZERO POINT ENERGY IS (SCALED BY   1.000)
        0.127317 HARTREE/MOLECULE    27942.850888 CM**-1/MOLECULE 
       79.892700 KCAL/MOL              334.271057 KJ/MOL

               Q               LN Q
 ELEC.     1.00000E+00       0.000000
 TRANS.    2.92211E+07      17.190400
 ROT.      1.29214E+05      11.769222
 VIB.      1.45113E+01       2.674925
 TOT.      5.47911E+13      31.634548

              E         H         G         CV        CP        S
           KJ/MOL    KJ/MOL    KJ/MOL   J/MOL-K   J/MOL-K   J/MOL-K
 ELEC.      0.000     0.000     0.000     0.000     0.000     0.000
 TRANS.     3.718     6.197   -42.614    12.472    20.786   163.714
 ROT.       3.718     3.718   -29.175    12.472    12.472   110.326
 VIB.     343.819   343.819   327.640    70.487    70.487    54.265
 TOTAL    351.256   353.735   255.851    95.431   103.745   328.305
 VIB. THERMAL CORRECTION E(T)-E(0) = H(T)-H(0) =      9548.107 J/MOL

              E         H         G         CV        CP        S
         KCAL/MOL  KCAL/MOL  KCAL/MOL CAL/MOL-K CAL/MOL-K CAL/MOL-K
 ELEC.      0.000     0.000     0.000     0.000     0.000     0.000
 TRANS.     0.889     1.481   -10.185     2.981     4.968    39.129
 ROT.       0.889     0.889    -6.973     2.981     2.981    26.368
 VIB.      82.175    82.175    78.308    16.847    16.847    12.970
 TOTAL     83.952    84.545    61.150    22.808    24.796    78.467
 VIB. THERMAL CORRECTION E(T)-E(0) = H(T)-H(0) =      2282.052 CAL/MOL
 ......END OF NORMAL COORDINATE ANALYSIS......
 CPU     0: STEP CPU TIME=     0.01 TOTAL CPU TIME=       1945.0 (     32.4 MIN)
 TOTAL WALL CLOCK TIME=       2855.4 SECONDS, CPU UTILIZATION IS    68.12%
               1907011  WORDS OF DYNAMIC MEMORY USED
 EXECUTION OF GAMESS TERMINATED NORMALLY Wed Mar 22 14:51:38 2023
 DDI: 263640 bytes (0.3 MB / 0 MWords) used by master data server.

 ----------------------------------------
 CPU timing information for all processes
 ========================================
 0: 1518.185 + 426.782 = 1944.967
 1: 1410.780 + 335.290 = 1746.70
 2: 1445.448 + 374.262 = 1819.711
 3: 1326.905 + 333.843 = 1660.748
 4: 1497.580 + 412.100 = 1909.680
 5: 1343.901 + 340.637 = 1684.539
 6: 1410.233 + 376.484 = 1786.717
 7: 1313.898 + 322.109 = 1636.08
 8: 1500.783 + 407.905 = 1908.689
 9: 1353.533 + 309.535 = 1663.69
 10: 1400.444 + 352.870 = 1753.315
 11: 1308.472 + 307.297 = 1615.770
 12: 1448.836 + 381.624 = 1830.461
 13: 1324.84 + 308.553 = 1632.638
 14: 1345.930 + 345.546 = 1691.477
 15: 1289.28 + 308.506 = 1597.535
 ----------------------------------------
 ddikick.x: exited gracefully.
unset echo
----- accounting info -----
Files used on the master node mike-trex were:
-rw-rw-r--. 1 filatov filatov    291783 Mar 22 14:51 /home/filatov/work-dir/gam-scr/psb3-s0min-ssr-bhhlyp-6-31gs.dat
-rw-r--r--. 1 filatov filatov    183765 Mar 22 14:04 /home/filatov/work-dir/gam-scr/psb3-s0min-ssr-bhhlyp-6-31gs.F05
-rw-rw-r--. 1 filatov filatov   6480576 Mar 22 14:51 /home/filatov/work-dir/gam-scr/psb3-s0min-ssr-bhhlyp-6-31gs.F08
-rw-rw-r--. 1 filatov filatov   3600320 Mar 22 14:51 /home/filatov/work-dir/gam-scr/psb3-s0min-ssr-bhhlyp-6-31gs.F08.001
-rw-rw-r--. 1 filatov filatov   5940528 Mar 22 14:51 /home/filatov/work-dir/gam-scr/psb3-s0min-ssr-bhhlyp-6-31gs.F08.002
-rw-rw-r--. 1 filatov filatov   4140368 Mar 22 14:51 /home/filatov/work-dir/gam-scr/psb3-s0min-ssr-bhhlyp-6-31gs.F08.003
-rw-rw-r--. 1 filatov filatov   3600320 Mar 22 14:51 /home/filatov/work-dir/gam-scr/psb3-s0min-ssr-bhhlyp-6-31gs.F08.004
-rw-rw-r--. 1 filatov filatov   3420304 Mar 22 14:51 /home/filatov/work-dir/gam-scr/psb3-s0min-ssr-bhhlyp-6-31gs.F08.005
-rw-rw-r--. 1 filatov filatov   3600320 Mar 22 14:51 /home/filatov/work-dir/gam-scr/psb3-s0min-ssr-bhhlyp-6-31gs.F08.006
-rw-rw-r--. 1 filatov filatov   4140368 Mar 22 14:51 /home/filatov/work-dir/gam-scr/psb3-s0min-ssr-bhhlyp-6-31gs.F08.007
-rw-rw-r--. 1 filatov filatov   3780336 Mar 22 14:51 /home/filatov/work-dir/gam-scr/psb3-s0min-ssr-bhhlyp-6-31gs.F08.008
-rw-rw-r--. 1 filatov filatov   2340208 Mar 22 14:51 /home/filatov/work-dir/gam-scr/psb3-s0min-ssr-bhhlyp-6-31gs.F08.009
-rw-rw-r--. 1 filatov filatov   3420304 Mar 22 14:51 /home/filatov/work-dir/gam-scr/psb3-s0min-ssr-bhhlyp-6-31gs.F08.010
-rw-rw-r--. 1 filatov filatov   6300560 Mar 22 14:51 /home/filatov/work-dir/gam-scr/psb3-s0min-ssr-bhhlyp-6-31gs.F08.011
-rw-rw-r--. 1 filatov filatov   4140368 Mar 22 14:51 /home/filatov/work-dir/gam-scr/psb3-s0min-ssr-bhhlyp-6-31gs.F08.012
-rw-rw-r--. 1 filatov filatov   6660592 Mar 22 14:51 /home/filatov/work-dir/gam-scr/psb3-s0min-ssr-bhhlyp-6-31gs.F08.013
-rw-rw-r--. 1 filatov filatov   6660592 Mar 22 14:51 /home/filatov/work-dir/gam-scr/psb3-s0min-ssr-bhhlyp-6-31gs.F08.014
-rw-rw-r--. 1 filatov filatov   4320384 Mar 22 14:51 /home/filatov/work-dir/gam-scr/psb3-s0min-ssr-bhhlyp-6-31gs.F08.015
-rw-rw-r--. 1 filatov filatov 104857600 Mar 22 14:51 /home/filatov/work-dir/gam-scr/psb3-s0min-ssr-bhhlyp-6-31gs.F10
-rw-rw-r--. 1 filatov filatov   1879616 Mar 22 14:51 /home/filatov/work-dir/gam-scr/psb3-s0min-ssr-bhhlyp-6-31gs.F22
-rw-rw-r--. 1 filatov filatov   1879616 Mar 22 14:51 /home/filatov/work-dir/gam-scr/psb3-s0min-ssr-bhhlyp-6-31gs.F22.001
-rw-rw-r--. 1 filatov filatov   1879616 Mar 22 14:51 /home/filatov/work-dir/gam-scr/psb3-s0min-ssr-bhhlyp-6-31gs.F22.002
-rw-rw-r--. 1 filatov filatov   1879616 Mar 22 14:51 /home/filatov/work-dir/gam-scr/psb3-s0min-ssr-bhhlyp-6-31gs.F22.003
-rw-rw-r--. 1 filatov filatov   1879616 Mar 22 14:51 /home/filatov/work-dir/gam-scr/psb3-s0min-ssr-bhhlyp-6-31gs.F22.004
-rw-rw-r--. 1 filatov filatov   1879616 Mar 22 14:51 /home/filatov/work-dir/gam-scr/psb3-s0min-ssr-bhhlyp-6-31gs.F22.005
-rw-rw-r--. 1 filatov filatov   1879616 Mar 22 14:51 /home/filatov/work-dir/gam-scr/psb3-s0min-ssr-bhhlyp-6-31gs.F22.006
-rw-rw-r--. 1 filatov filatov   1879616 Mar 22 14:51 /home/filatov/work-dir/gam-scr/psb3-s0min-ssr-bhhlyp-6-31gs.F22.007
-rw-rw-r--. 1 filatov filatov   1879616 Mar 22 14:51 /home/filatov/work-dir/gam-scr/psb3-s0min-ssr-bhhlyp-6-31gs.F22.008
-rw-rw-r--. 1 filatov filatov   1879616 Mar 22 14:51 /home/filatov/work-dir/gam-scr/psb3-s0min-ssr-bhhlyp-6-31gs.F22.009
-rw-rw-r--. 1 filatov filatov   1879616 Mar 22 14:51 /home/filatov/work-dir/gam-scr/psb3-s0min-ssr-bhhlyp-6-31gs.F22.010
-rw-rw-r--. 1 filatov filatov   1879616 Mar 22 14:51 /home/filatov/work-dir/gam-scr/psb3-s0min-ssr-bhhlyp-6-31gs.F22.011
-rw-rw-r--. 1 filatov filatov   1879616 Mar 22 14:51 /home/filatov/work-dir/gam-scr/psb3-s0min-ssr-bhhlyp-6-31gs.F22.012
-rw-rw-r--. 1 filatov filatov   1879616 Mar 22 14:51 /home/filatov/work-dir/gam-scr/psb3-s0min-ssr-bhhlyp-6-31gs.F22.013
-rw-rw-r--. 1 filatov filatov   1879616 Mar 22 14:51 /home/filatov/work-dir/gam-scr/psb3-s0min-ssr-bhhlyp-6-31gs.F22.014
-rw-rw-r--. 1 filatov filatov   1879616 Mar 22 14:51 /home/filatov/work-dir/gam-scr/psb3-s0min-ssr-bhhlyp-6-31gs.F22.015
-rw-rw-r--. 1 filatov filatov     67720 Mar 22 14:51 /home/filatov/work-dir/gam-scr/psb3-s0min-ssr-bhhlyp-6-31gs.rst
ls: No match.
ls: No match.
ls: No match.
Wed Mar 22 02:51:41 PM KST 2023
0.140u 0.111s 47:38.67 0.0%	0+0k 0+168io 0pf+0w
